Initial configuration for Stockmayer fluid with two ions

1002  atoms
0  bonds
0  angles
0  dihedrals
0  impropers

3  atom types
0  bond types
0  angle types
0  dihedral types
0  improper types

0.00 10.3464 xlo xhi
0.00 10.3464 ylo yhi
0.00 10.3464 zlo zhi

Atoms

1 1 7.503304 6.532767 0.601909 0.0 0.0 0.0 0.0 1.0 1.0
2 1 3.102664 2.116824 9.834289 0.0 0.0 0.0 0.0 1.0 1.0
3 1 2.013032 1.86287 4.284075 0.0 0.0 0.0 0.0 1.0 1.0
4 1 7.995092 8.180818 5.482955 0.0 0.0 0.0 0.0 1.0 1.0
5 1 0.500646 3.398697 2.087469 0.0 0.0 0.0 0.0 1.0 1.0
6 1 8.619003 4.418467 2.324514 0.0 0.0 0.0 0.0 1.0 1.0
7 1 8.953856 6.069235 6.29839 0.0 0.0 0.0 0.0 1.0 1.0
8 1 7.850707 2.339067 0.803461 0.0 0.0 0.0 0.0 1.0 1.0
9 1 5.958187 5.5185 7.910085 0.0 0.0 0.0 0.0 1.0 1.0
10 1 5.082491 4.538092 2.866534 0.0 0.0 0.0 0.0 1.0 1.0
11 1 2.242821 0.5 1.493949 0.0 0.0 0.0 0.0 1.0 1.0
12 1 4.87905 1.466793 3.723452 0.0 0.0 0.0 0.0 1.0 1.0
13 1 3.340335 2.847643 4.10005 0.0 0.0 0.0 0.0 1.0 1.0
14 1 4.443785 0.603438 4.834376 0.0 0.0 0.0 0.0 1.0 1.0
15 1 6.132508 5.362353 0.532258 0.0 0.0 0.0 0.0 1.0 1.0
16 1 7.250053 4.160572 6.022471 0.0 0.0 0.0 0.0 1.0 1.0
17 1 2.927793 7.367733 4.049714 0.0 0.0 0.0 0.0 1.0 1.0
18 1 2.791409 9.081825 1.977153 0.0 0.0 0.0 0.0 1.0 1.0
19 1 5.19417 2.844396 9.8464 0.0 0.0 0.0 0.0 1.0 1.0
20 1 6.441182 0.608691 6.6876 0.0 0.0 0.0 0.0 1.0 1.0
21 1 4.422305 6.096753 7.897201 0.0 0.0 0.0 0.0 1.0 1.0
22 1 8.078977 1.439592 1.176858 0.0 0.0 0.0 0.0 1.0 1.0
23 1 7.09111 6.646654 5.554732 0.0 0.0 0.0 0.0 1.0 1.0
24 1 0.5 1.550642 6.65557 0.0 0.0 0.0 0.0 1.0 1.0
25 1 4.623454 1.989162 4.669163 0.0 0.0 0.0 0.0 1.0 1.0
26 1 2.058549 4.798437 7.287276 0.0 0.0 0.0 0.0 1.0 1.0
27 1 0.500076 3.51407 0.500175 0.0 0.0 0.0 0.0 1.0 1.0
28 1 1.573395 3.016554 0.49981 0.0 0.0 0.0 0.0 1.0 1.0
29 1 4.258493 9.124541 5.302223 0.0 0.0 0.0 0.0 1.0 1.0
30 1 1.322734 2.131666 2.383908 0.0 0.0 0.0 0.0 1.0 1.0
31 1 3.200248 9.02356 7.136531 0.0 0.0 0.0 0.0 1.0 1.0
32 1 9.163626 9.846269 5.009316 0.0 0.0 0.0 0.0 1.0 1.0
33 1 2.900863 5.202509 9.8464 0.0 0.0 0.0 0.0 1.0 1.0
34 1 8.746969 1.158666 2.978592 0.0 0.0 0.0 0.0 1.0 1.0
35 1 9.846458 9.779225 2.283761 0.0 0.0 0.0 0.0 1.0 1.0
36 1 0.49995 8.965673 1.38562 0.0 0.0 0.0 0.0 1.0 1.0
37 1 6.992926 0.862307 2.505785 0.0 0.0 0.0 0.0 1.0 1.0
38 1 6.840022 3.131468 5.067019 0.0 0.0 0.0 0.0 1.0 1.0
39 1 3.169701 7.946038 8.326148 0.0 0.0 0.0 0.0 1.0 1.0
40 1 2.890558 2.117092 7.817894 0.0 0.0 0.0 0.0 1.0 1.0
41 1 9.846976 2.977734 4.725966 0.0 0.0 0.0 0.0 1.0 1.0
42 1 1.399914 5.083861 4.988786 0.0 0.0 0.0 0.0 1.0 1.0
43 1 7.292868 4.090125 5.025867 0.0 0.0 0.0 0.0 1.0 1.0
44 1 5.908037 4.819712 2.364446 0.0 0.0 0.0 0.0 1.0 1.0
45 1 3.287535 0.877686 9.8464 0.0 0.0 0.0 0.0 1.0 1.0
46 1 7.673865 7.675038 2.109215 0.0 0.0 0.0 0.0 1.0 1.0
47 1 6.653488 4.674893 1.42251 0.0 0.0 0.0 0.0 1.0 1.0
48 1 2.900014 0.500089 5.328258 0.0 0.0 0.0 0.0 1.0 1.0
49 1 7.470987 4.095523 1.440125 0.0 0.0 0.0 0.0 1.0 1.0
50 1 6.31026 4.564597 6.172981 0.0 0.0 0.0 0.0 1.0 1.0
51 1 5.04748 7.56563 5.989867 0.0 0.0 0.0 0.0 1.0 1.0
52 1 4.194934 4.909649 6.313586 0.0 0.0 0.0 0.0 1.0 1.0
53 1 9.019283 3.589195 2.928083 0.0 0.0 0.0 0.0 1.0 1.0
54 1 1.329882 7.172461 6.825221 0.0 0.0 0.0 0.0 1.0 1.0
55 1 3.714345 7.980502 3.011998 0.0 0.0 0.0 0.0 1.0 1.0
56 1 2.957878 3.9014 5.500395 0.0 0.0 0.0 0.0 1.0 1.0
57 1 2.743163 4.510787 3.230279 0.0 0.0 0.0 0.0 1.0 1.0
58 1 9.504587 2.153891 9.8464 0.0 0.0 0.0 0.0 1.0 1.0
59 1 7.226873 5.293254 6.823064 0.0 0.0 0.0 0.0 1.0 1.0
60 1 0.5 2.163446 0.5 0.0 0.0 0.0 0.0 1.0 1.0
61 1 9.25238 8.097079 6.159797 0.0 0.0 0.0 0.0 1.0 1.0
62 1 6.560845 1.328688 4.56693 0.0 0.0 0.0 0.0 1.0 1.0
63 1 9.400254 5.33203 9.846372 0.0 0.0 0.0 0.0 1.0 1.0
64 1 5.948447 6.528097 8.508934 0.0 0.0 0.0 0.0 1.0 1.0
65 1 3.893765 6.633964 4.437031 0.0 0.0 0.0 0.0 1.0 1.0
66 1 9.824367 3.414419 2.361461 0.0 0.0 0.0 0.0 1.0 1.0
67 1 6.084233 1.423909 3.529465 0.0 0.0 0.0 0.0 1.0 1.0
68 1 0.953675 9.8464 8.904018 0.0 0.0 0.0 0.0 1.0 1.0
69 1 4.855774 4.844184 8.925314 0.0 0.0 0.0 0.0 1.0 1.0
70 1 1.638087 8.206755 9.085157 0.0 0.0 0.0 0.0 1.0 1.0
71 1 2.622414 1.44328 7.129472 0.0 0.0 0.0 0.0 1.0 1.0
72 1 9.845386 4.411771 2.291099 0.0 0.0 0.0 0.0 1.0 1.0
73 1 6.620823 8.276457 9.232576 0.0 0.0 0.0 0.0 1.0 1.0
74 1 9.430223 6.547678 5.560718 0.0 0.0 0.0 0.0 1.0 1.0
75 1 8.900689 8.208918 3.222667 0.0 0.0 0.0 0.0 1.0 1.0
76 1 8.619641 0.740669 1.641349 0.0 0.0 0.0 0.0 1.0 1.0
77 1 7.817239 2.54447 4.715247 0.0 0.0 0.0 0.0 1.0 1.0
78 1 9.846435 9.243702 0.496488 0.0 0.0 0.0 0.0 1.0 1.0
79 1 9.033172 2.441848 1.010623 0.0 0.0 0.0 0.0 1.0 1.0
80 1 0.783322 8.387014 7.696546 0.0 0.0 0.0 0.0 1.0 1.0
81 1 3.578785 8.865848 1.21205 0.0 0.0 0.0 0.0 1.0 1.0
82 1 4.557333 7.204645 5.093068 0.0 0.0 0.0 0.0 1.0 1.0
83 1 6.83137 3.326854 1.445742 0.0 0.0 0.0 0.0 1.0 1.0
84 1 5.901134 6.595214 4.129918 0.0 0.0 0.0 0.0 1.0 1.0
85 1 6.949343 2.648148 0.500015 0.0 0.0 0.0 0.0 1.0 1.0
86 1 0.5 6.188448 2.583923 0.0 0.0 0.0 0.0 1.0 1.0
87 1 8.830894 0.753889 4.646008 0.0 0.0 0.0 0.0 1.0 1.0
88 1 5.193302 6.40453 9.84522 0.0 0.0 0.0 0.0 1.0 1.0
89 1 8.123348 3.147137 3.978272 0.0 0.0 0.0 0.0 1.0 1.0
90 1 4.012687 8.248121 2.000779 0.0 0.0 0.0 0.0 1.0 1.0
91 1 1.129653 6.962011 5.242919 0.0 0.0 0.0 0.0 1.0 1.0
92 1 4.155236 0.5 8.1783 0.0 0.0 0.0 0.0 1.0 1.0
93 1 8.361734 4.315467 5.821451 0.0 0.0 0.0 0.0 1.0 1.0
94 1 3.238843 5.272631 7.683389 0.0 0.0 0.0 0.0 1.0 1.0
95 1 5.273634 4.536514 4.612262 0.0 0.0 0.0 0.0 1.0 1.0
96 1 2.573352 9.8464 7.262645 0.0 0.0 0.0 0.0 1.0 1.0
97 1 2.909333 4.48681 8.362783 0.0 0.0 0.0 0.0 1.0 1.0
98 1 5.125072 4.054478 1.235465 0.0 0.0 0.0 0.0 1.0 1.0
99 1 0.51024 1.348937 1.951261 0.0 0.0 0.0 0.0 1.0 1.0
100 1 4.03218 2.784614 3.323233 0.0 0.0 0.0 0.0 1.0 1.0
101 1 6.382951 9.082994 6.577791 0.0 0.0 0.0 0.0 1.0 1.0
102 1 1.53716 4.850387 2.154105 0.0 0.0 0.0 0.0 1.0 1.0
103 1 2.135297 9.029862 1.169928 0.0 0.0 0.0 0.0 1.0 1.0
104 1 7.056259 8.037165 2.807211 0.0 0.0 0.0 0.0 1.0 1.0
105 1 4.886512 1.207785 8.039815 0.0 0.0 0.0 0.0 1.0 1.0
106 1 1.63585 4.722664 1.15073 0.0 0.0 0.0 0.0 1.0 1.0
107 1 5.547749 8.285139 6.988783 0.0 0.0 0.0 0.0 1.0 1.0
108 1 0.676593 6.214873 0.5 0.0 0.0 0.0 0.0 1.0 1.0
109 1 1.270623 3.393391 8.076024 0.0 0.0 0.0 0.0 1.0 1.0
110 1 8.280961 2.024974 3.157978 0.0 0.0 0.0 0.0 1.0 1.0
111 1 6.696107 5.386931 2.124787 0.0 0.0 0.0 0.0 1.0 1.0
112 1 8.838776 9.843716 5.955088 0.0 0.0 0.0 0.0 1.0 1.0
113 1 7.314221 9.8464 8.22617 0.0 0.0 0.0 0.0 1.0 1.0
114 1 8.159403 8.475772 2.460643 0.0 0.0 0.0 0.0 1.0 1.0
115 1 4.52727 4.597513 3.696112 0.0 0.0 0.0 0.0 1.0 1.0
116 1 9.274334 1.961522 3.256633 0.0 0.0 0.0 0.0 1.0 1.0
117 1 2.369368 6.680279 6.992516 0.0 0.0 0.0 0.0 1.0 1.0
118 1 5.961961 2.922078 7.165684 0.0 0.0 0.0 0.0 1.0 1.0
119 1 7.966594 9.846401 6.443048 0.0 0.0 0.0 0.0 1.0 1.0
120 1 3.713744 9.140042 6.170066 0.0 0.0 0.0 0.0 1.0 1.0
121 1 9.8464 6.963708 8.857646 0.0 0.0 0.0 0.0 1.0 1.0
122 1 8.213737 0.500013 7.882791 0.0 0.0 0.0 0.0 1.0 1.0
123 1 5.054335 3.551686 7.445956 0.0 0.0 0.0 0.0 1.0 1.0
124 1 7.910852 8.038373 3.330195 0.0 0.0 0.0 0.0 1.0 1.0
125 1 9.8464 8.820222 9.8464 0.0 0.0 0.0 0.0 1.0 1.0
126 1 1.484612 3.610836 4.26939 0.0 0.0 0.0 0.0 1.0 1.0
127 1 8.872227 8.837577 1.859685 0.0 0.0 0.0 0.0 1.0 1.0
128 1 2.756076 2.513403 5.444496 0.0 0.0 0.0 0.0 1.0 1.0
129 1 9.846466 7.920806 0.499945 0.0 0.0 0.0 0.0 1.0 1.0
130 1 5.229755 2.885393 8.170729 0.0 0.0 0.0 0.0 1.0 1.0
131 1 2.832538 5.533506 8.655888 0.0 0.0 0.0 0.0 1.0 1.0
132 1 7.592489 5.883142 5.147702 0.0 0.0 0.0 0.0 1.0 1.0
133 1 8.092318 9.129938 1.288051 0.0 0.0 0.0 0.0 1.0 1.0
134 1 0.731504 9.8464 7.102102 0.0 0.0 0.0 0.0 1.0 1.0
135 1 9.827866 1.306398 3.770688 0.0 0.0 0.0 0.0 1.0 1.0
136 1 1.49993 9.84639 9.840753 0.0 0.0 0.0 0.0 1.0 1.0
137 1 2.693059 0.5 0.5 0.0 0.0 0.0 0.0 1.0 1.0
138 1 4.613744 2.045958 9.415909 0.0 0.0 0.0 0.0 1.0 1.0
139 1 9.280455 7.08474 3.024756 0.0 0.0 0.0 0.0 1.0 1.0
140 1 9.846403 7.297066 6.075435 0.0 0.0 0.0 0.0 1.0 1.0
141 1 0.5 8.489466 5.279298 0.0 0.0 0.0 0.0 1.0 1.0
142 1 4.311138 1.331258 5.52749 0.0 0.0 0.0 0.0 1.0 1.0
143 1 7.911584 4.87238 4.789484 0.0 0.0 0.0 0.0 1.0 1.0
144 1 6.111377 0.499884 4.233665 0.0 0.0 0.0 0.0 1.0 1.0
145 1 9.630702 4.771604 7.37457 0.0 0.0 0.0 0.0 1.0 1.0
146 1 9.212386 4.140417 8.994765 0.0 0.0 0.0 0.0 1.0 1.0
147 1 9.22615 0.499673 2.399087 0.0 0.0 0.0 0.0 1.0 1.0
148 1 1.138384 2.785449 7.153796 0.0 0.0 0.0 0.0 1.0 1.0
149 1 7.5845 3.768985 8.348629 0.0 0.0 0.0 0.0 1.0 1.0
150 1 9.844744 7.907893 3.08784 0.0 0.0 0.0 0.0 1.0 1.0
151 1 5.509826 2.005393 7.652329 0.0 0.0 0.0 0.0 1.0 1.0
152 1 1.391338 8.999343 0.500155 0.0 0.0 0.0 0.0 1.0 1.0
153 1 7.0975 7.052231 2.638307 0.0 0.0 0.0 0.0 1.0 1.0
154 1 4.453141 9.287126 1.709646 0.0 0.0 0.0 0.0 1.0 1.0
155 1 7.92502 0.543506 2.333209 0.0 0.0 0.0 0.0 1.0 1.0
156 1 5.551521 8.115786 8.916252 0.0 0.0 0.0 0.0 1.0 1.0
157 1 6.920408 9.845958 6.075819 0.0 0.0 0.0 0.0 1.0 1.0
158 1 8.166667 5.326766 2.4188 0.0 0.0 0.0 0.0 1.0 1.0
159 1 0.5 4.356404 1.473823 0.0 0.0 0.0 0.0 1.0 1.0
160 1 3.59739 2.322523 2.377552 0.0 0.0 0.0 0.0 1.0 1.0
161 1 1.272672 6.870343 2.455455 0.0 0.0 0.0 0.0 1.0 1.0
162 1 6.584302 6.520383 9.422529 0.0 0.0 0.0 0.0 1.0 1.0
163 1 7.690707 7.377917 4.905979 0.0 0.0 0.0 0.0 1.0 1.0
164 1 0.5 9.8464 6.129268 0.0 0.0 0.0 0.0 1.0 1.0
165 1 8.150536 8.416125 7.844372 0.0 0.0 0.0 0.0 1.0 1.0
166 1 5.763207 7.260202 4.885293 0.0 0.0 0.0 0.0 1.0 1.0
167 1 3.536143 0.534625 7.270883 0.0 0.0 0.0 0.0 1.0 1.0
168 1 3.135505 3.425568 2.011848 0.0 0.0 0.0 0.0 1.0 1.0
169 1 8.203708 9.296477 8.480389 0.0 0.0 0.0 0.0 1.0 1.0
170 1 2.035034 0.500007 5.830116 0.0 0.0 0.0 0.0 1.0 1.0
171 1 8.696197 4.135898 7.907968 0.0 0.0 0.0 0.0 1.0 1.0
172 1 7.325315 6.817736 1.673287 0.0 0.0 0.0 0.0 1.0 1.0
173 1 4.355662 0.504869 3.140135 0.0 0.0 0.0 0.0 1.0 1.0
174 1 1.770987 2.335396 5.368816 0.0 0.0 0.0 0.0 1.0 1.0
175 1 4.687315 2.633263 5.686602 0.0 0.0 0.0 0.0 1.0 1.0
176 1 7.058869 1.421676 6.334159 0.0 0.0 0.0 0.0 1.0 1.0
177 1 9.109002 2.277378 8.338533 0.0 0.0 0.0 0.0 1.0 1.0
178 1 0.500694 6.529819 7.454113 0.0 0.0 0.0 0.0 1.0 1.0
179 1 9.84594 9.844986 4.279195 0.0 0.0 0.0 0.0 1.0 1.0
180 1 3.576402 3.37766 4.914516 0.0 0.0 0.0 0.0 1.0 1.0
181 1 4.334888 9.846398 9.103263 0.0 0.0 0.0 0.0 1.0 1.0
182 1 8.506874 2.119718 4.127507 0.0 0.0 0.0 0.0 1.0 1.0
183 1 4.543897 9.8464 6.028939 0.0 0.0 0.0 0.0 1.0 1.0
184 1 6.996275 2.081811 9.205301 0.0 0.0 0.0 0.0 1.0 1.0
185 1 6.934783 5.621587 7.721314 0.0 0.0 0.0 0.0 1.0 1.0
186 1 6.190411 2.721944 8.785766 0.0 0.0 0.0 0.0 1.0 1.0
187 1 3.095921 9.092266 5.104511 0.0 0.0 0.0 0.0 1.0 1.0
188 1 0.95317 6.102579 4.5689 0.0 0.0 0.0 0.0 1.0 1.0
189 1 1.490751 6.704724 1.393012 0.0 0.0 0.0 0.0 1.0 1.0
190 1 9.435327 6.07402 4.587184 0.0 0.0 0.0 0.0 1.0 1.0
191 1 5.845984 9.8464 9.844029 0.0 0.0 0.0 0.0 1.0 1.0
192 1 1.709219 4.858311 8.23761 0.0 0.0 0.0 0.0 1.0 1.0
193 1 0.943628 4.410319 0.500088 0.0 0.0 0.0 0.0 1.0 1.0
194 1 8.498927 9.846077 3.115659 0.0 0.0 0.0 0.0 1.0 1.0
195 1 5.637781 7.218963 9.470377 0.0 0.0 0.0 0.0 1.0 1.0
196 1 6.416612 9.082659 3.110013 0.0 0.0 0.0 0.0 1.0 1.0
197 1 7.595978 7.612278 7.389612 0.0 0.0 0.0 0.0 1.0 1.0
198 1 6.44367 9.004809 0.5 0.0 0.0 0.0 0.0 1.0 1.0
199 1 8.562029 3.184959 0.535411 0.0 0.0 0.0 0.0 1.0 1.0
200 1 3.766531 1.382775 7.914454 0.0 0.0 0.0 0.0 1.0 1.0
201 1 8.128308 9.844566 7.516772 0.0 0.0 0.0 0.0 1.0 1.0
202 1 9.83081 9.8464 9.584761 0.0 0.0 0.0 0.0 1.0 1.0
203 1 5.777632 0.499967 0.499948 0.0 0.0 0.0 0.0 1.0 1.0
204 1 7.815744 3.856204 3.345853 0.0 0.0 0.0 0.0 1.0 1.0
205 1 7.085918 2.071303 5.206686 0.0 0.0 0.0 0.0 1.0 1.0
206 1 2.861095 1.36528 3.188779 0.0 0.0 0.0 0.0 1.0 1.0
207 1 1.089012 5.694864 5.770982 0.0 0.0 0.0 0.0 1.0 1.0
208 1 5.422159 2.195328 1.263993 0.0 0.0 0.0 0.0 1.0 1.0
209 1 9.840413 7.575054 7.036001 0.0 0.0 0.0 0.0 1.0 1.0
210 1 4.807332 9.837906 8.167816 0.0 0.0 0.0 0.0 1.0 1.0
211 1 6.91699 4.756139 9.284428 0.0 0.0 0.0 0.0 1.0 1.0
212 1 0.5 5.155807 2.226879 0.0 0.0 0.0 0.0 1.0 1.0
213 1 5.262018 6.731184 2.268036 0.0 0.0 0.0 0.0 1.0 1.0
214 1 3.101925 9.14397 8.12441 0.0 0.0 0.0 0.0 1.0 1.0
215 1 9.123883 2.971086 7.164145 0.0 0.0 0.0 0.0 1.0 1.0
216 1 3.371914 7.206791 1.974587 0.0 0.0 0.0 0.0 1.0 1.0
217 1 5.217681 7.48926 3.040725 0.0 0.0 0.0 0.0 1.0 1.0
218 1 8.056583 9.763301 0.499965 0.0 0.0 0.0 0.0 1.0 1.0
219 1 7.473028 3.834101 9.347316 0.0 0.0 0.0 0.0 1.0 1.0
220 1 3.086206 8.424416 4.257574 0.0 0.0 0.0 0.0 1.0 1.0
221 1 0.500035 0.500084 2.479166 0.0 0.0 0.0 0.0 1.0 1.0
222 1 2.889474 3.734353 3.997716 0.0 0.0 0.0 0.0 1.0 1.0
223 1 8.236686 9.522829 5.201712 0.0 0.0 0.0 0.0 1.0 1.0
224 1 2.2765 3.242524 5.936204 0.0 0.0 0.0 0.0 1.0 1.0
225 1 3.892116 4.567846 8.154384 0.0 0.0 0.0 0.0 1.0 1.0
226 1 5.455224 9.166908 2.499145 0.0 0.0 0.0 0.0 1.0 1.0
227 1 2.624983 8.747513 9.846383 0.0 0.0 0.0 0.0 1.0 1.0
228 1 6.242616 2.521008 9.8464 0.0 0.0 0.0 0.0 1.0 1.0
229 1 5.286537 1.646151 5.334517 0.0 0.0 0.0 0.0 1.0 1.0
230 1 1.705008 9.8464 6.574273 0.0 0.0 0.0 0.0 1.0 1.0
231 1 5.258863 3.864326 8.649249 0.0 0.0 0.0 0.0 1.0 1.0
232 1 5.600612 3.24273 5.556991 0.0 0.0 0.0 0.0 1.0 1.0
233 1 2.113858 5.518419 5.795053 0.0 0.0 0.0 0.0 1.0 1.0
234 1 3.30229 0.609818 1.373722 0.0 0.0 0.0 0.0 1.0 1.0
235 1 3.090659 6.35443 7.719344 0.0 0.0 0.0 0.0 1.0 1.0
236 1 9.8464 6.449418 6.745435 0.0 0.0 0.0 0.0 1.0 1.0
237 1 9.237275 5.197281 0.500001 0.0 0.0 0.0 0.0 1.0 1.0
238 1 5.695285 4.94567 1.330113 0.0 0.0 0.0 0.0 1.0 1.0
239 1 3.334163 3.605189 6.467342 0.0 0.0 0.0 0.0 1.0 1.0
240 1 9.8464 1.383223 5.875668 0.0 0.0 0.0 0.0 1.0 1.0
241 1 6.029679 3.58271 9.8464 0.0 0.0 0.0 0.0 1.0 1.0
242 1 6.277499 1.559596 5.497689 0.0 0.0 0.0 0.0 1.0 1.0
243 1 0.5 4.399119 8.794817 0.0 0.0 0.0 0.0 1.0 1.0
244 1 1.270315 0.73969 1.72636 0.0 0.0 0.0 0.0 1.0 1.0
245 1 8.1842 1.996303 6.579979 0.0 0.0 0.0 0.0 1.0 1.0
246 1 3.161931 9.246163 9.117362 0.0 0.0 0.0 0.0 1.0 1.0
247 1 7.824429 9.846253 3.974412 0.0 0.0 0.0 0.0 1.0 1.0
248 1 9.84629 2.473787 5.589317 0.0 0.0 0.0 0.0 1.0 1.0
249 1 5.256971 3.701691 2.25015 0.0 0.0 0.0 0.0 1.0 1.0
250 1 9.8464 7.889632 7.9981 0.0 0.0 0.0 0.0 1.0 1.0
251 1 8.140908 2.471269 8.790014 0.0 0.0 0.0 0.0 1.0 1.0
252 1 8.768434 7.766972 4.109906 0.0 0.0 0.0 0.0 1.0 1.0
253 1 4.262715 1.168266 8.941645 0.0 0.0 0.0 0.0 1.0 1.0
254 1 3.748021 2.219364 5.099925 0.0 0.0 0.0 0.0 1.0 1.0
255 1 6.115106 9.027016 8.75676 0.0 0.0 0.0 0.0 1.0 1.0
256 1 6.787562 3.346917 6.567559 0.0 0.0 0.0 0.0 1.0 1.0
257 1 1.548207 8.278257 6.436242 0.0 0.0 0.0 0.0 1.0 1.0
258 1 1.532401 9.83572 1.37292 0.0 0.0 0.0 0.0 1.0 1.0
259 1 2.006857 3.822079 3.443171 0.0 0.0 0.0 0.0 1.0 1.0
260 1 1.891245 0.5 8.139869 0.0 0.0 0.0 0.0 1.0 1.0
261 1 3.761107 8.284329 6.763741 0.0 0.0 0.0 0.0 1.0 1.0
262 1 0.500045 0.500017 6.614235 0.0 0.0 0.0 0.0 1.0 1.0
263 1 6.044797 0.500004 1.463674 0.0 0.0 0.0 0.0 1.0 1.0
264 1 0.500041 5.255267 0.79891 0.0 0.0 0.0 0.0 1.0 1.0
265 1 0.926578 3.027429 1.262398 0.0 0.0 0.0 0.0 1.0 1.0
266 1 3.625428 6.805671 5.510479 0.0 0.0 0.0 0.0 1.0 1.0
267 1 3.728529 6.128951 8.699666 0.0 0.0 0.0 0.0 1.0 1.0
268 1 6.186799 8.789811 1.893643 0.0 0.0 0.0 0.0 1.0 1.0
269 1 9.8464 6.234386 9.8464 0.0 0.0 0.0 0.0 1.0 1.0
270 1 3.955877 3.847964 1.249956 0.0 0.0 0.0 0.0 1.0 1.0
271 1 0.5 8.160685 8.670753 0.0 0.0 0.0 0.0 1.0 1.0
272 1 8.207791 3.008424 2.992609 0.0 0.0 0.0 0.0 1.0 1.0
273 1 9.72221 8.132081 4.272054 0.0 0.0 0.0 0.0 1.0 1.0
274 1 7.974045 2.800751 7.135594 0.0 0.0 0.0 0.0 1.0 1.0
275 1 5.257535 9.25245 6.579935 0.0 0.0 0.0 0.0 1.0 1.0
276 1 3.909144 7.731477 4.397543 0.0 0.0 0.0 0.0 1.0 1.0
277 1 8.315365 5.860289 9.8464 0.0 0.0 0.0 0.0 1.0 1.0
278 1 9.844953 8.856457 5.891091 0.0 0.0 0.0 0.0 1.0 1.0
279 1 9.84644 4.911208 9.056535 0.0 0.0 0.0 0.0 1.0 1.0
280 1 2.301599 0.500039 7.043797 0.0 0.0 0.0 0.0 1.0 1.0
281 1 4.630085 6.623679 1.0108 0.0 0.0 0.0 0.0 1.0 1.0
282 1 8.058484 8.339247 9.050044 0.0 0.0 0.0 0.0 1.0 1.0
283 1 2.535084 3.660148 8.913605 0.0 0.0 0.0 0.0 1.0 1.0
284 1 8.960301 6.065012 2.821602 0.0 0.0 0.0 0.0 1.0 1.0
285 1 5.019023 0.5 8.820473 0.0 0.0 0.0 0.0 1.0 1.0
286 1 0.956031 7.845068 2.225279 0.0 0.0 0.0 0.0 1.0 1.0
287 1 0.49995 8.501728 0.499793 0.0 0.0 0.0 0.0 1.0 1.0
288 1 9.621366 4.314741 3.260841 0.0 0.0 0.0 0.0 1.0 1.0
289 1 9.845537 4.33274 0.500007 0.0 0.0 0.0 0.0 1.0 1.0
290 1 0.931189 3.447922 3.336091 0.0 0.0 0.0 0.0 1.0 1.0
291 1 5.690874 4.529614 7.927649 0.0 0.0 0.0 0.0 1.0 1.0
292 1 0.5 9.8464 4.027074 0.0 0.0 0.0 0.0 1.0 1.0
293 1 2.190931 1.428359 6.227475 0.0 0.0 0.0 0.0 1.0 1.0
294 1 6.205478 5.396169 6.806705 0.0 0.0 0.0 0.0 1.0 1.0
295 1 4.936106 6.500445 7.134386 0.0 0.0 0.0 0.0 1.0 1.0
296 1 8.919497 5.959399 1.446245 0.0 0.0 0.0 0.0 1.0 1.0
297 1 3.630585 2.57517 8.310362 0.0 0.0 0.0 0.0 1.0 1.0
298 1 3.309866 8.061805 9.309485 0.0 0.0 0.0 0.0 1.0 1.0
299 1 7.171586 2.934399 8.713002 0.0 0.0 0.0 0.0 1.0 1.0
300 1 2.351026 2.938682 9.8464 0.0 0.0 0.0 0.0 1.0 1.0
301 1 0.49999 9.846423 2.825264 0.0 0.0 0.0 0.0 1.0 1.0
302 1 6.534499 7.371814 7.472754 0.0 0.0 0.0 0.0 1.0 1.0
303 1 4.487239 2.06282 8.370716 0.0 0.0 0.0 0.0 1.0 1.0
304 1 8.935376 2.779689 2.345825 0.0 0.0 0.0 0.0 1.0 1.0
305 1 5.192459 7.424407 1.33058 0.0 0.0 0.0 0.0 1.0 1.0
306 1 7.236743 5.020598 5.5124 0.0 0.0 0.0 0.0 1.0 1.0
307 1 2.357309 0.501991 3.158529 0.0 0.0 0.0 0.0 1.0 1.0
308 1 7.450524 1.135292 8.000872 0.0 0.0 0.0 0.0 1.0 1.0
309 1 1.40159 8.155185 3.159144 0.0 0.0 0.0 0.0 1.0 1.0
310 1 2.090662 0.855 4.365798 0.0 0.0 0.0 0.0 1.0 1.0
311 1 6.448256 3.51894 0.542238 0.0 0.0 0.0 0.0 1.0 1.0
312 1 3.089737 4.61724 4.581157 0.0 0.0 0.0 0.0 1.0 1.0
313 1 4.174877 5.237187 7.260411 0.0 0.0 0.0 0.0 1.0 1.0
314 1 1.10502 5.217805 9.012165 0.0 0.0 0.0 0.0 1.0 1.0
315 1 9.846399 9.412301 6.83701 0.0 0.0 0.0 0.0 1.0 1.0
316 1 9.247341 1.320725 0.499765 0.0 0.0 0.0 0.0 1.0 1.0
317 1 0.501246 4.190175 2.698721 0.0 0.0 0.0 0.0 1.0 1.0
318 1 4.667261 9.821106 7.152828 0.0 0.0 0.0 0.0 1.0 1.0
319 1 3.862672 6.310427 6.969123 0.0 0.0 0.0 0.0 1.0 1.0
320 1 3.813282 5.165155 8.952481 0.0 0.0 0.0 0.0 1.0 1.0
321 1 0.500001 9.353917 7.979867 0.0 0.0 0.0 0.0 1.0 1.0
322 1 1.325774 1.886312 9.044295 0.0 0.0 0.0 0.0 1.0 1.0
323 1 0.5 4.271478 3.77791 0.0 0.0 0.0 0.0 1.0 1.0
324 1 6.18638 1.828951 2.138604 0.0 0.0 0.0 0.0 1.0 1.0
325 1 3.755164 5.855194 9.844921 0.0 0.0 0.0 0.0 1.0 1.0
326 1 5.308367 3.302499 6.511394 0.0 0.0 0.0 0.0 1.0 1.0
327 1 7.336756 0.584266 7.131842 0.0 0.0 0.0 0.0 1.0 1.0
328 1 9.843935 9.846223 3.279049 0.0 0.0 0.0 0.0 1.0 1.0
329 1 2.205365 4.185362 6.308435 0.0 0.0 0.0 0.0 1.0 1.0
330 1 4.809944 3.045265 1.368489 0.0 0.0 0.0 0.0 1.0 1.0
331 1 4.015696 6.746828 9.474633 0.0 0.0 0.0 0.0 1.0 1.0
332 1 6.015213 3.915271 6.970526 0.0 0.0 0.0 0.0 1.0 1.0
333 1 2.573575 5.206784 2.073055 0.0 0.0 0.0 0.0 1.0 1.0
334 1 0.5 2.23582 4.873753 0.0 0.0 0.0 0.0 1.0 1.0
335 1 5.007534 0.500002 2.050661 0.0 0.0 0.0 0.0 1.0 1.0
336 1 1.343928 8.977865 4.96067 0.0 0.0 0.0 0.0 1.0 1.0
337 1 8.83877 7.792324 5.113199 0.0 0.0 0.0 0.0 1.0 1.0
338 1 8.914062 8.787989 5.166766 0.0 0.0 0.0 0.0 1.0 1.0
339 1 7.787605 8.178154 1.252512 0.0 0.0 0.0 0.0 1.0 1.0
340 1 6.000177 0.878606 2.38795 0.0 0.0 0.0 0.0 1.0 1.0
341 1 5.976408 8.835967 9.8464 0.0 0.0 0.0 0.0 1.0 1.0
342 1 5.202135 5.851898 8.47332 0.0 0.0 0.0 0.0 1.0 1.0
343 1 4.316213 7.865823 8.832312 0.0 0.0 0.0 0.0 1.0 1.0
344 1 2.839678 6.271999 2.120594 0.0 0.0 0.0 0.0 1.0 1.0
345 1 2.975484 7.586695 5.120352 0.0 0.0 0.0 0.0 1.0 1.0
346 1 2.312617 7.791306 9.8464 0.0 0.0 0.0 0.0 1.0 1.0
347 1 8.488467 8.013016 6.883555 0.0 0.0 0.0 0.0 1.0 1.0
348 1 1.615007 2.944067 9.024573 0.0 0.0 0.0 0.0 1.0 1.0
349 1 6.929416 5.596294 1.099523 0.0 0.0 0.0 0.0 1.0 1.0
350 1 0.500001 5.756546 6.69455 0.0 0.0 0.0 0.0 1.0 1.0
351 1 6.8111 4.264186 3.732261 0.0 0.0 0.0 0.0 1.0 1.0
352 1 5.191525 6.519259 3.347374 0.0 0.0 0.0 0.0 1.0 1.0
353 1 9.229967 7.991953 2.303622 0.0 0.0 0.0 0.0 1.0 1.0
354 1 1.929356 1.987705 9.846399 0.0 0.0 0.0 0.0 1.0 1.0
355 1 6.742898 1.23366 1.465566 0.0 0.0 0.0 0.0 1.0 1.0
356 1 4.241059 9.09904 0.5 0.0 0.0 0.0 0.0 1.0 1.0
357 1 9.8464 9.8464 8.009167 0.0 0.0 0.0 0.0 1.0 1.0
358 1 5.822734 5.794579 9.335541 0.0 0.0 0.0 0.0 1.0 1.0
359 1 1.109297 1.28958 9.8464 0.0 0.0 0.0 0.0 1.0 1.0
360 1 8.721816 2.892343 5.279693 0.0 0.0 0.0 0.0 1.0 1.0
361 1 6.107587 6.994114 3.212967 0.0 0.0 0.0 0.0 1.0 1.0
362 1 7.67768 2.079181 7.76123 0.0 0.0 0.0 0.0 1.0 1.0
363 1 9.846439 0.520038 0.499942 0.0 0.0 0.0 0.0 1.0 1.0
364 1 5.449414 5.744236 2.235234 0.0 0.0 0.0 0.0 1.0 1.0
365 1 2.08592 2.34725 6.91075 0.0 0.0 0.0 0.0 1.0 1.0
366 1 9.846401 5.999765 2.270917 0.0 0.0 0.0 0.0 1.0 1.0
367 1 7.202205 1.085973 5.331649 0.0 0.0 0.0 0.0 1.0 1.0
368 1 8.572526 5.998478 0.505104 0.0 0.0 0.0 0.0 1.0 1.0
369 1 1.31527 3.331347 6.225647 0.0 0.0 0.0 0.0 1.0 1.0
370 1 6.404074 7.566728 8.516291 0.0 0.0 0.0 0.0 1.0 1.0
371 1 5.911696 2.898543 3.900559 0.0 0.0 0.0 0.0 1.0 1.0
372 1 4.555111 5.94093 9.230577 0.0 0.0 0.0 0.0 1.0 1.0
373 1 5.29908 1.088631 1.151454 0.0 0.0 0.0 0.0 1.0 1.0
374 1 8.864587 5.109481 3.101161 0.0 0.0 0.0 0.0 1.0 1.0
375 1 5.568939 1.316984 4.431696 0.0 0.0 0.0 0.0 1.0 1.0
376 1 8.69664 5.111627 7.482042 0.0 0.0 0.0 0.0 1.0 1.0
377 1 6.658815 8.706903 5.588254 0.0 0.0 0.0 0.0 1.0 1.0
378 1 9.846706 7.241667 3.833615 0.0 0.0 0.0 0.0 1.0 1.0
379 1 8.880784 4.634837 4.724286 0.0 0.0 0.0 0.0 1.0 1.0
380 1 4.151501 7.457889 1.284756 0.0 0.0 0.0 0.0 1.0 1.0
381 1 0.5 7.061996 3.232877 0.0 0.0 0.0 0.0 1.0 1.0
382 1 5.225595 4.260722 9.64837 0.0 0.0 0.0 0.0 1.0 1.0
383 1 9.294346 6.766591 1.943475 0.0 0.0 0.0 0.0 1.0 1.0
384 1 5.853914 2.389083 6.012492 0.0 0.0 0.0 0.0 1.0 1.0
385 1 6.031213 5.881943 1.433644 0.0 0.0 0.0 0.0 1.0 1.0
386 1 4.778047 5.22257 1.685391 0.0 0.0 0.0 0.0 1.0 1.0
387 1 3.776168 0.500047 0.5 0.0 0.0 0.0 0.0 1.0 1.0
388 1 0.499995 4.945651 5.46809 0.0 0.0 0.0 0.0 1.0 1.0
389 1 6.527735 5.374449 4.901676 0.0 0.0 0.0 0.0 1.0 1.0
390 1 5.732519 1.11267 9.220757 0.0 0.0 0.0 0.0 1.0 1.0
391 1 1.028828 1.382592 0.97576 0.0 0.0 0.0 0.0 1.0 1.0
392 1 4.44309 4.310222 2.132206 0.0 0.0 0.0 0.0 1.0 1.0
393 1 3.148408 2.319411 3.272926 0.0 0.0 0.0 0.0 1.0 1.0
394 1 0.49971 2.344244 1.85493 0.0 0.0 0.0 0.0 1.0 1.0
395 1 3.040703 0.50001 4.193805 0.0 0.0 0.0 0.0 1.0 1.0
396 1 4.474754 4.258248 0.5 0.0 0.0 0.0 0.0 1.0 1.0
397 1 2.010442 8.337359 2.368931 0.0 0.0 0.0 0.0 1.0 1.0
398 1 2.199595 7.662986 6.880011 0.0 0.0 0.0 0.0 1.0 1.0
399 1 3.602274 1.474055 6.932268 0.0 0.0 0.0 0.0 1.0 1.0
400 1 2.033057 5.29202 3.021653 0.0 0.0 0.0 0.0 1.0 1.0
401 1 9.031052 5.533994 5.325297 0.0 0.0 0.0 0.0 1.0 1.0
402 1 5.943095 9.8464 7.104641 0.0 0.0 0.0 0.0 1.0 1.0
403 1 9.8464 4.261497 9.8464 0.0 0.0 0.0 0.0 1.0 1.0
404 1 4.986523 8.148849 7.958415 0.0 0.0 0.0 0.0 1.0 1.0
405 1 3.711806 2.793815 1.350414 0.0 0.0 0.0 0.0 1.0 1.0
406 1 7.166892 8.20056 8.312217 0.0 0.0 0.0 0.0 1.0 1.0
407 1 8.547905 1.422874 8.097481 0.0 0.0 0.0 0.0 1.0 1.0
408 1 4.813778 9.379052 9.8464 0.0 0.0 0.0 0.0 1.0 1.0
409 1 6.490388 1.47059 9.8464 0.0 0.0 0.0 0.0 1.0 1.0
410 1 9.332469 4.147667 5.649648 0.0 0.0 0.0 0.0 1.0 1.0
411 1 5.467086 8.581624 3.438866 0.0 0.0 0.0 0.0 1.0 1.0
412 1 3.356089 0.500001 3.109582 0.0 0.0 0.0 0.0 1.0 1.0
413 1 8.820533 9.844931 4.062596 0.0 0.0 0.0 0.0 1.0 1.0
414 1 3.900235 9.8464 3.585827 0.0 0.0 0.0 0.0 1.0 1.0
415 1 6.753675 7.967235 1.848683 0.0 0.0 0.0 0.0 1.0 1.0
416 1 7.61399 3.322121 0.822584 0.0 0.0 0.0 0.0 1.0 1.0
417 1 9.093621 8.462725 8.389576 0.0 0.0 0.0 0.0 1.0 1.0
418 1 1.785439 6.282325 0.5 0.0 0.0 0.0 0.0 1.0 1.0
419 1 7.292021 9.846394 5.147394 0.0 0.0 0.0 0.0 1.0 1.0
420 1 1.398057 3.785176 2.518595 0.0 0.0 0.0 0.0 1.0 1.0
421 1 9.846393 8.932534 3.685597 0.0 0.0 0.0 0.0 1.0 1.0
422 1 6.059235 8.004014 2.876971 0.0 0.0 0.0 0.0 1.0 1.0
423 1 1.291896 5.850004 8.151075 0.0 0.0 0.0 0.0 1.0 1.0
424 1 2.303917 9.181123 4.358756 0.0 0.0 0.0 0.0 1.0 1.0
425 1 1.470207 4.641559 9.8464 0.0 0.0 0.0 0.0 1.0 1.0
426 1 0.713322 8.977034 9.400664 0.0 0.0 0.0 0.0 1.0 1.0
427 1 3.403548 7.073042 8.754195 0.0 0.0 0.0 0.0 1.0 1.0
428 1 7.506448 8.147488 6.428384 0.0 0.0 0.0 0.0 1.0 1.0
429 1 4.896962 8.246419 5.144807 0.0 0.0 0.0 0.0 1.0 1.0
430 1 2.235337 7.342645 2.267314 0.0 0.0 0.0 0.0 1.0 1.0
431 1 6.696182 1.315881 7.369717 0.0 0.0 0.0 0.0 1.0 1.0
432 1 8.934556 7.733085 1.384114 0.0 0.0 0.0 0.0 1.0 1.0
433 1 3.990223 3.675998 3.774913 0.0 0.0 0.0 0.0 1.0 1.0
434 1 6.249646 0.500001 9.8464 0.0 0.0 0.0 0.0 1.0 1.0
435 1 3.956641 4.933657 1.092482 0.0 0.0 0.0 0.0 1.0 1.0
436 1 4.89745 5.231306 9.8464 0.0 0.0 0.0 0.0 1.0 1.0
437 1 7.651419 0.841812 0.49987 0.0 0.0 0.0 0.0 1.0 1.0
438 1 1.436137 9.10198 3.706553 0.0 0.0 0.0 0.0 1.0 1.0
439 1 5.422015 9.154312 7.660312 0.0 0.0 0.0 0.0 1.0 1.0
440 1 4.579696 2.400016 2.577118 0.0 0.0 0.0 0.0 1.0 1.0
441 1 2.156051 3.895052 7.968728 0.0 0.0 0.0 0.0 1.0 1.0
442 1 9.240878 2.181581 4.805015 0.0 0.0 0.0 0.0 1.0 1.0
443 1 0.5 2.743792 6.093021 0.0 0.0 0.0 0.0 1.0 1.0
444 1 7.69045 0.500004 8.734947 0.0 0.0 0.0 0.0 1.0 1.0
445 1 6.902637 8.435863 7.289102 0.0 0.0 0.0 0.0 1.0 1.0
446 1 2.676411 8.127218 3.304482 0.0 0.0 0.0 0.0 1.0 1.0
447 1 2.463774 0.499996 9.033867 0.0 0.0 0.0 0.0 1.0 1.0
448 1 9.142281 0.5 7.181135 0.0 0.0 0.0 0.0 1.0 1.0
449 1 3.607758 5.601893 4.385676 0.0 0.0 0.0 0.0 1.0 1.0
450 1 6.963376 9.369656 9.8464 0.0 0.0 0.0 0.0 1.0 1.0
451 1 8.402646 6.884673 4.406129 0.0 0.0 0.0 0.0 1.0 1.0
452 1 2.025848 9.149238 5.811391 0.0 0.0 0.0 0.0 1.0 1.0
453 1 3.065558 5.656345 5.224237 0.0 0.0 0.0 0.0 1.0 1.0
454 1 7.106765 9.8464 7.107298 0.0 0.0 0.0 0.0 1.0 1.0
455 1 7.550302 2.298398 3.783476 0.0 0.0 0.0 0.0 1.0 1.0
456 1 3.010389 7.920521 1.217005 0.0 0.0 0.0 0.0 1.0 1.0
457 1 9.476682 5.186691 4.048071 0.0 0.0 0.0 0.0 1.0 1.0
458 1 7.751841 1.524511 2.417528 0.0 0.0 0.0 0.0 1.0 1.0
459 1 4.112465 7.801623 9.84624 0.0 0.0 0.0 0.0 1.0 1.0
460 1 2.895276 3.298424 0.499997 0.0 0.0 0.0 0.0 1.0 1.0
461 1 6.970935 7.976433 4.5319 0.0 0.0 0.0 0.0 1.0 1.0
462 1 1.497453 3.805283 1.52375 0.0 0.0 0.0 0.0 1.0 1.0
463 1 9.415026 5.931224 7.536571 0.0 0.0 0.0 0.0 1.0 1.0
464 1 5.032572 8.284578 9.8464 0.0 0.0 0.0 0.0 1.0 1.0
465 1 8.853671 9.846397 2.180567 0.0 0.0 0.0 0.0 1.0 1.0
466 1 9.083572 8.047754 9.8464 0.0 0.0 0.0 0.0 1.0 1.0
467 1 1.154696 7.025703 4.095565 0.0 0.0 0.0 0.0 1.0 1.0
468 1 4.901614 5.656222 5.989569 0.0 0.0 0.0 0.0 1.0 1.0
469 1 4.334656 0.961128 1.383062 0.0 0.0 0.0 0.0 1.0 1.0
470 1 4.295699 2.929063 4.384022 0.0 0.0 0.0 0.0 1.0 1.0
471 1 8.066764 1.190435 5.885499 0.0 0.0 0.0 0.0 1.0 1.0
472 1 5.617981 6.986923 0.508167 0.0 0.0 0.0 0.0 1.0 1.0
473 1 3.974366 1.386154 2.667149 0.0 0.0 0.0 0.0 1.0 1.0
474 1 8.182735 1.231787 3.800945 0.0 0.0 0.0 0.0 1.0 1.0
475 1 2.020571 1.635756 7.924836 0.0 0.0 0.0 0.0 1.0 1.0
476 1 1.34307 4.145709 6.952141 0.0 0.0 0.0 0.0 1.0 1.0
477 1 6.755123 2.055464 8.146955 0.0 0.0 0.0 0.0 1.0 1.0
478 1 2.871623 9.351 0.574367 0.0 0.0 0.0 0.0 1.0 1.0
479 1 2.435887 2.187895 2.583712 0.0 0.0 0.0 0.0 1.0 1.0
480 1 6.696026 0.502041 3.409539 0.0 0.0 0.0 0.0 1.0 1.0
481 1 2.796695 6.424505 6.060641 0.0 0.0 0.0 0.0 1.0 1.0
482 1 5.841808 3.16719 1.303079 0.0 0.0 0.0 0.0 1.0 1.0
483 1 2.563758 6.923405 1.311023 0.0 0.0 0.0 0.0 1.0 1.0
484 1 6.927342 8.810997 3.981338 0.0 0.0 0.0 0.0 1.0 1.0
485 1 0.804366 7.78107 5.989582 0.0 0.0 0.0 0.0 1.0 1.0
486 1 6.927207 1.792153 2.915874 0.0 0.0 0.0 0.0 1.0 1.0
487 1 9.023241 2.153525 6.058542 0.0 0.0 0.0 0.0 1.0 1.0
488 1 5.64202 8.475302 5.913063 0.0 0.0 0.0 0.0 1.0 1.0
489 1 0.5 3.160078 9.8464 0.0 0.0 0.0 0.0 1.0 1.0
490 1 1.305525 4.514026 3.197035 0.0 0.0 0.0 0.0 1.0 1.0
491 1 2.383387 8.284331 0.5 0.0 0.0 0.0 0.0 1.0 1.0
492 1 7.480137 7.362723 3.928517 0.0 0.0 0.0 0.0 1.0 1.0
493 1 2.876275 2.189982 1.613124 0.0 0.0 0.0 0.0 1.0 1.0
494 1 2.326901 2.811395 3.785409 0.0 0.0 0.0 0.0 1.0 1.0
495 1 4.009753 4.762366 9.846395 0.0 0.0 0.0 0.0 1.0 1.0
496 1 0.5 5.156103 4.415922 0.0 0.0 0.0 0.0 1.0 1.0
497 1 3.853441 8.132877 5.418279 0.0 0.0 0.0 0.0 1.0 1.0
498 1 9.843997 1.545902 8.096036 0.0 0.0 0.0 0.0 1.0 1.0
499 1 7.955843 9.451101 2.374598 0.0 0.0 0.0 0.0 1.0 1.0
500 1 9.83036 0.5 8.889815 0.0 0.0 0.0 0.0 1.0 1.0
501 1 5.308133 0.807265 3.106271 0.0 0.0 0.0 0.0 1.0 1.0
502 1 3.182955 4.624884 6.153066 0.0 0.0 0.0 0.0 1.0 1.0
503 1 0.5 7.357321 8.038889 0.0 0.0 0.0 0.0 1.0 1.0
504 1 4.270163 3.230251 6.51325 0.0 0.0 0.0 0.0 1.0 1.0
505 1 7.665034 5.542875 9.082361 0.0 0.0 0.0 0.0 1.0 1.0
506 1 4.329028 5.942057 3.705404 0.0 0.0 0.0 0.0 1.0 1.0
507 1 8.662378 5.084752 9.218364 0.0 0.0 0.0 0.0 1.0 1.0
508 1 1.236989 1.002739 6.162367 0.0 0.0 0.0 0.0 1.0 1.0
509 1 4.411558 7.349565 2.463293 0.0 0.0 0.0 0.0 1.0 1.0
510 1 3.538315 1.112263 4.861585 0.0 0.0 0.0 0.0 1.0 1.0
511 1 8.243758 2.975118 1.517553 0.0 0.0 0.0 0.0 1.0 1.0
512 1 1.398248 7.300471 8.737114 0.0 0.0 0.0 0.0 1.0 1.0
513 1 5.8615 8.252426 1.043805 0.0 0.0 0.0 0.0 1.0 1.0
514 1 9.190613 5.225277 2.147871 0.0 0.0 0.0 0.0 1.0 1.0
515 1 0.5 3.896086 5.796317 0.0 0.0 0.0 0.0 1.0 1.0
516 1 1.273779 2.603416 4.357866 0.0 0.0 0.0 0.0 1.0 1.0
517 1 3.684733 9.687997 9.846375 0.0 0.0 0.0 0.0 1.0 1.0
518 1 8.933174 1.232635 6.437802 0.0 0.0 0.0 0.0 1.0 1.0
519 1 9.832867 8.7829 2.198496 0.0 0.0 0.0 0.0 1.0 1.0
520 1 8.772226 9.8464 9.8464 0.0 0.0 0.0 0.0 1.0 1.0
521 1 5.317259 9.336707 5.335833 0.0 0.0 0.0 0.0 1.0 1.0
522 1 7.2044 3.472873 4.200608 0.0 0.0 0.0 0.0 1.0 1.0
523 1 7.304703 5.237788 4.083665 0.0 0.0 0.0 0.0 1.0 1.0
524 1 1.878578 1.456812 3.350998 0.0 0.0 0.0 0.0 1.0 1.0
525 1 8.223152 6.297909 2.187134 0.0 0.0 0.0 0.0 1.0 1.0
526 1 4.48963 5.151814 4.527583 0.0 0.0 0.0 0.0 1.0 1.0
527 1 1.449686 4.061489 8.933227 0.0 0.0 0.0 0.0 1.0 1.0
528 1 8.687021 8.912129 6.286535 0.0 0.0 0.0 0.0 1.0 1.0
529 1 9.00954 6.615806 8.315327 0.0 0.0 0.0 0.0 1.0 1.0
530 1 9.8464 5.942446 8.463876 0.0 0.0 0.0 0.0 1.0 1.0
531 1 2.345569 9.093898 2.935727 0.0 0.0 0.0 0.0 1.0 1.0