ITEM: TIMESTEP
0
ITEM: NUMBER OF ATOMS
1002
ITEM: BOX BOUNDS pp pp pp
0.0000000000000000e+00 1.0346399999999999e+01
0.0000000000000000e+00 1.0346399999999999e+01
0.0000000000000000e+00 1.0346399999999999e+01
ITEM: ATOMS id type x y z q mux muy muz
484 1 2.58358 3.058 2.24884 0 0.018028 1.16863 -1.30168
25 1 5.01157 2.99782 3.59923 0 -1.26601 1.18805 0.214857
883 1 2.10618 2.17141 2.20521 0 1.07187 1.33779 0.349008
953 1 1.45958 1.68818 4.5767 0 1.12603 -0.261141 -1.31311
578 1 1.49371 2.26083 3.32904 0 1.14182 1.08748 0.75765
707 1 4.80941 4.85154 2.70812 0 -0.3206 1.71805 -0.0770365
616 1 0.0482678 1.72292 4.30902 0 1.66416 -0.518029 0.150368
514 1 2.26177 1.19401 4.08684 0 1.39607 0.803077 0.682983
11 1 4.48745 3.09722 0.733559 0 1.45826 -0.951526 0.168735
244 1 3.23975 1.30313 1.86545 0 1.29699 -1.16958 0.101402
47 1 1.74851 4.76246 3.1788 0 0.773014 -0.670441 -1.41893
583 1 0.976287 2.17582 5.46913 0 1.66515 0.232966 -0.483106
974 1 2.66956 4.84083 2.24123 0 1.35416 1.03254 0.400614
443 1 3.39682 3.2543 3.5485 0 -0.328249 1.71402 0.121649
410 1 3.10993 2.0817 2.48625 0 1.29855 -0.956524 -0.677658
511 1 1.46628 4.86041 2.01926 0 -0.848451 0.812694 -1.29617
319 1 4.89566 1.1789 2.11382 0 1.63105 -0.119867 -0.62106
52 1 2.71641 3.65931 4.19464 0 -1.11924 1.32852 0.206735
781 1 4.05291 1.67994 2.36498 0 1.20739 1.25872 -0.135026
904 1 4.30634 3.43502 1.65827 0 1.27833 -0.822465 0.865928
267 1 0.81918 1.56819 3.64014 0 0.171706 -0.684424 -1.60078
242 1 0.840987 0.674538 3.08485 0 0.830831 -1.37477 -0.692915
499 1 0.326026 4.3405 3.83395 0 1.40436 0.762261 -0.712127
750 1 4.29534 4.35086 4.56087 0 1.05821 -1.34178 -0.374442
923 1 3.38635 4.63474 4.74925 0 1.35042 0.668437 -0.888791
510 1 3.43326 0.0402952 2.27907 0 0.967418 -0.25289 -1.43546
949 1 4.26508 1.75291 4.10949 0 0.646222 1.07948 -1.21553
188 1 1.37712 1.19028 0.365886 0 1.26314 0.513279 -1.09609
41 1 4.82673 0.277206 3.64858 0 -1.48581 0.535634 0.752239
42 1 1.14546 1.43524 2.45548 0 0.0161622 -1.44781 0.98183
313 1 1.51925 0.211583 2.20552 0 0.00373022 1.20571 -1.26754
822 1 4.07503 0.717864 1.88432 0 1.03182 0.681969 1.2372
560 1 2.04558 3.95965 2.25431 0 0.384962 1.25393 -1.15753
527 1 0.65967 4.91377 4.90119 0 -0.0981316 -1.26255 -1.20695
652 1 4.2547 2.36151 3.22561 0 0.80335 1.55311 -0.0536576
480 1 5.11186 3.83093 4.35289 0 0.927557 -0.845279 -1.21883
351 1 3.97969 0.548405 2.97866 0 -1.42595 -0.998114 -0.175635
620 1 2.51561 2.62817 3.20711 0 0.118559 0.87624 -1.50949
169 1 3.93372 4.04618 1.03704 0 0.682177 -1.49909 0.589721
980 1 1.77385 1.13734 3.18136 0 1.71675 0.1556 0.298251
347 1 2.23474 3.11465 0.562892 0 0.911133 -0.532994 -1.39505
3 1 3.50776 3.51513 4.7693 0 -1.58815 0.29147 0.673227
381 1 2.99404 3.41785 1.48057 0 0.575802 -0.364181 -1.61128
604 1 3.66506 1.50961 3.36294 0 1.28427 0.532765 1.0617
647 1 4.56705 3.81048 2.61608 0 1.06233 1.37938 -0.170774
259 1 0.605563 5.12455 2.87106 0 1.13185 0.068697 1.33214
2 1 1.10841 4.00068 4.28925 0 0.825044 -1.05574 -1.12477
140 1 4.10876 5.28392 5.09946 0 -1.14673 -0.598934 -1.17758
369 1 2.56615 4.36819 3.60596 0 -0.747503 1.48472 0.54519
849 1 2.77931 2.62399 4.86173 0 1.74655 -0.0366748 -0.0928982
955 1 4.10915 3.05109 4.20016 0 -1.203 1.05842 0.7021
366 1 5.40418 4.77335 3.59673 0 0.659027 -0.353734 -1.58144
122 1 2.24838 1.1538 2.23258 0 1.03208 1.40733 -0.12094
4 1 1.79149 2.11981 0.466497 0 -1.73515 -0.188991 0.118092
330 1 3.98998 1.33018 1.05947 0 -0.0609567 0.174792 1.73958
817 1 2.40552 1.18977 1.11682 0 1.18214 0.142715 -1.28163
609 1 5.39053 2.57864 4.64037 0 -1.67326 -0.418122 0.292886
504 1 2.96152 5.25664 3.11547 0 -0.70246 1.56992 -0.319863
658 1 2.2322 0.287301 0.613156 0 0.185661 0.507214 -1.66393
372 1 0.76759 3.27647 3.55378 0 0.7175 0.64988 -1.45714
145 1 2.01245 3.49591 4.84471 0 1.09289 1.22703 0.600331
950 1 2.70991 1.54235 3.24467 0 1.24904 1.10871 -0.520639
555 1 4.91105 4.17354 1.32395 0 1.62071 0.0888571 -0.652536
175 1 3.81702 2.78566 2.36888 0 -0.942053 0.561762 1.36285
864 1 3.33736 2.35789 3.88792 0 -0.0227897 1.35708 -1.10372
591 1 0.751166 2.27184 2.60449 0 1.5129 -0.656319 -0.583758
788 1 0.567715 2.53665 1.20645 0 0.925992 -1.46888 0.212936
587 1 0.176141 1.26124 2.10349 0 -0.814765 0.863442 -1.28492
646 1 2.254 0.146473 2.89967 0 -0.51238 -0.640264 -1.54529
397 1 0.50683 0.374405 2.20822 0 -0.814662 1.23767 -0.929995
712 1 1.87308 0.157117 4.01941 0 1.49944 0.877377 -0.205624
212 1 3.75075 2.53739 1.29545 0 0.828269 -0.0134943 1.54084
886 1 1.51083 0.812004 1.33479 0 0.97561 1.36835 -0.486012
633 1 0.496841 0.0999432 0.831489 0 0.452219 -1.39352 0.956029
576 1 1.33145 1.87988 1.53215 0 0.981779 -0.10696 1.44398
999 1 3.22634 3.81895 2.31962 0 -0.984889 0.554778 -1.33515
645 1 0.917972 5.15624 1.17179 0 -1.33553 1.12388 -0.116787
841 1 0.0103058 5.07401 0.792665 0 -1.39643 0.255188 -1.02238
772 1 1.97969 4.60076 4.4186 0 -0.68746 -0.0215749 1.60852
236 1 3.03576 0.627686 3.51178 0 -0.323174 1.5131 0.816395
890 1 2.60376 2.52312 1.29969 0 0.648077 -1.62298 -0.0795592
908 1 2.45088 1.60916 4.96498 0 -0.707921 -0.25927 1.57862
666 1 1.12528 2.9975 0.134369 0 0.920981 -1.35915 0.604073
200 1 1.47329 3.81736 0.79279 0 1.37249 -0.657786 0.862544
21 1 3.20169 0.636827 1.13794 0 0.376945 0.0858081 -1.70615
350 1 5.01546 1.20383 1.1527 0 1.316 0.541124 -1.01771
427 1 5.06369 2.6213 2.43253 0 -0.579036 -0.0728216 -1.64919
129 1 4.56703 2.10932 1.58612 0 1.20886 0.325041 -1.22205
631 1 1.82933 3.7161 3.6229 0 1.66713 0.118129 -0.516847
895 1 0.854131 3.59865 1.83308 0 -0.278345 -1.48063 -0.88919
143 1 1.64217 3.00147 1.46504 0 1.01767 0.164229 -1.41343
462 1 4.3992 3.89466 3.59285 0 -1.22098 1.19774 -0.367441
96 1 4.90927 0.744715 4.5345 0 -1.38258 0.590833 0.894308
600 1 3.35187 4.82242 1.15899 0 0.461259 -1.49573 -0.781304
54 1 0.00808661 5.35686 3.74154 0 -0.860491 1.51538 -0.153593
159 1 5.22112 0.251085 0.766689 0 1.56058 -0.356922 0.705411
588 1 2.86541 5.20812 4.16602 0 -1.43863 0.375574 -0.921792
304 1 2.50457 4.3827 5.22406 0 0.858769 1.10428 1.05046
626 1 3.77648 0.0909536 3.89651 0 -1.617 0.122451 -0.656295
532 1 0.848573 2.47788 4.42675 0 1.52031 -0.208312 -0.840032
466 1 4.73793 3.30768 5.18255 0 -0.204725 1.49583 0.88373
987 1 2.08977 4.48355 1.28533 0 -1.06561 1.38339 -0.10539
226 1 3.17501 1.47402 4.22331 0 -0.289414 1.64848 0.509067
839 1 1.92391 2.49378 5.18998 0 1.27143 1.20146 -0.0189881
82 1 0.382134 3.38967 4.46989 0 -0.76921 0.432364 -1.51056
622 1 2.38482 0.4944 4.8322 0 -0.361482 -1.05226 1.35
764 1 2.0416 2.45275 4.14202 0 1.44445 0.986709 0.0194467
61 1 5.19845 5.40631 4.3406 0 0.153214 -1.22611 -1.23838
370 1 3.31092 2.94059 0.53794 0 1.40814 -1.01385 -0.222844
939 1 4.67089 1.27882 3.1202 0 0.0288913 -0.943832 -1.47267
455 1 5.29207 1.44873 5.34193 0 -0.341509 1.40967 -0.978064
922 1 0.567165 1.3855 5.05128 0 1.51546 0.505995 0.712572
528 1 5.42887 5.06321 5.37363 0 -4.51534e-05 -1.64607 -0.59233
282 1 5.23576 2.89845 1.55637 0 1.62164 0.46342 -0.464675
799 1 1.06403 4.15095 2.7352 0 -0.029109 0.342232 -1.71535
390 1 1.47524 3.18348 2.74438 0 0.339887 1.42515 -0.955936
234 1 0.29459 4.5196 1.95301 0 1.05263 -0.369592 -1.34751
976 1 5.40513 0.588996 2.81256 0 -0.972766 -1.4474 0.138403
435 1 0.0632265 2.65715 5.11626 0 1.12444 0.931658 -0.963349
280 1 3.74063 4.76222 2.10603 0 0.690893 0.382282 -1.56107
55 1 4.10257 5.14062 0.38339 0 1.21052 -0.541025 -1.14119
503 1 4.62769 5.03583 1.54679 0 0.138936 -0.583073 -1.64351
57 1 3.49445 4.29623 3.16901 0 -1.09468 0.760731 -1.13286
889 1 1.26929 5.10871 4.00937 0 0.426635 -0.499462 -1.62139
101 1 2.4775 0.118575 1.83066 0 0.718865 1.59417 -0.0474365
142 1 0.390408 0.227503 4.62216 0 0.997304 0.793617 -1.19831
115 1 2.11243 5.38721 0.618974 0 0.597056 1.44044 0.793134
668 1 1.02661 0.735566 4.18714 0 1.43001 0.631713 -0.785114
386 1 3.29093 0.113721 0.244096 0 0.50038 -0.286682 -1.65162
621 1 5.2649 4.8521 0.471259 0 0.173248 -0.555154 -1.64991
196 1 4.2965 0.0802707 5.08862 0 -0.623925 1.02545 1.27262
603 1 4.68296 2.15394 0.307672 0 -1.10624 0.00279239 -1.35522
450 1 3.02025 5.05774 0.182271 0 1.39525 0.449765 0.954662
417 1 0.516389 3.96666 0.730218 0 1.2678 0.8949 -0.807618
816 1 2.7728 1.14452 0.0898468 0 -0.074022 0.34509 -1.71343
45 1 2.7448 5.33923 5.44438 0 -0.177876 1.53591 -0.818375
760 1 4.31831 1.15483 5.24725 0 -1.20427 0.832258 0.957852
8 1 4.75802 4.02947 0.299939 0 -1.2081 -1.26391 0.0586031
659 1 1.36112 4.25171 5.31355 0 -0.107332 -1.66023 0.540858
453 1 1.14612 3.22222 5.2317 0 1.02396 -0.91688 -1.08224
403 1 2.75706 4.1166 0.477422 0 -1.24277 -0.651442 -1.04477
966 1 3.2123 1.80818 0.74564 0 1.48265 -0.892706 -0.255369
26 1 0.702964 1.94512 0.41335 0 -1.2648 -1.13301 0.420674
456 1 3.72591 2.41693 4.9261 0 1.54762 -0.493728 0.649246
310 1 3.37897 0.753492 5.01027 0 -1.03774 0.145875 -1.40079
329 1 0.350916 0.978608 0.511213 0 0.170153 -0.838578 1.52586
51 1 1.74696 4.56687 0.201287 0 0.253106 1.66191 0.484129
296 1 4.28681 0.440479 0.526341 0 0.754142 0.139455 1.57233
17 1 9.33781 2.66943 3.29921 0 1.25263 -1.19144 -0.267914
151 1 5.88522 3.35753 2.43137 0 0.710876 -1.24324 -1.0047
309 1 8.85199 3.30907 2.76604 0 0.0470685 -0.674494 1.61346
29 1 9.44119 1.96971 4.00888 0 1.5851 -0.0163794 0.739991
87 1 10.2304 0.997823 3.10311 0 0.839941 0.808797 -1.30413
736 1 10.3011 2.6566 3.96284 0 1.56856 0.706129 -0.31846
343 1 10.2026 2.02457 3.24755 0 1.07973 0.160261 1.36708
100 1 6.20876 4.31217 5.15679 0 0.433315 -0.135387 -1.68947
673 1 5.82334 4.41692 2.432 0 -0.0103195 -1.43534 -1.00005
897 1 5.93169 5.39853 1.89853 0 -0.992932 -1.37825 -0.418229
776 1 9.48365 3.51738 4.12643 0 0.749551 -0.365821 -1.53777
473 1 10.018 4.28958 4.59929 0 -0.533194 0.900853 -1.40163
76 1 5.58745 1.87607 1.8838 0 1.43552 0.205717 0.978449
834 1 5.83224 3.70634 3.34259 0 0.139501 -1.06717 -1.37916
571 1 8.74597 1.72106 3.38774 0 0.702836 1.59801 0.113051
524 1 9.56085 0.285109 1.57244 0 1.36486 -0.144609 -1.08473
270 1 6.03841 5.30484 2.98395 0 1.30559 -0.645484 -0.969118
720 1 6.33049 0.501578 1.10918 0 1.45754 -0.219233 -0.942289
686 1 9.33718 2.73315 1.75621 0 0.927526 -1.30503 0.704979
334 1 7.31079 0.801956 4.32347 0 -1.64963 -0.257307 0.522416
368 1 5.837 2.13405 0.901805 0 -0.205565 0.15903 -1.72999
479 1 7.71825 2.63568 2.53041 0 -1.5837 -0.626676 0.399454
198 1 10.1785 4.34076 2.75636 0 0.796836 0.499542 -1.4751
786 1 6.56231 1.66901 3.57196 0 -1.4157 -0.356341 0.963956
407 1 6.25131 1.20354 2.71116 0 -1.41102 1.00871 0.227878
719 1 5.90925 4.09804 0.194023 0 -0.868369 0.0475901 -1.51792
344 1 9.2837 1.48569 2.50466 0 0.0099504 1.61056 -0.682925
363 1 6.56707 3.07333 0.122851 0 -0.252363 0.494143 -1.65908
192 1 6.85358 3.87775 1.74015 0 0.642231 -1.2071 -1.09127
798 1 5.69162 0.922663 3.68959 0 -0.483204 -1.58918 -0.549023
367 1 9.18171 0.44514 2.84297 0 -0.247745 1.6929 -0.364828
213 1 9.89907 5.3533 5.39483 0 1.18989 -0.462165 -1.19623
832 1 5.8942 2.63806 3.59087 0 -1.60709 0.35361 0.593821
356 1 8.4947 3.2024 3.84153 0 0.865948 1.33023 0.735549
121 1 6.73708 3.84492 2.84679 0 -0.454785 0.797417 -1.48919
110 1 6.89298 2.61102 3.19511 0 -0.0885708 0.405132 1.69954
523 1 8.80748 3.67506 1.85597 0 0.670154 -0.489056 1.54017
10 1 6.83187 2.81859 4.39454 0 0.41973 -1.5101 0.777054
437 1 5.49078 1.58676 4.40885 0 1.02171 -0.848887 -1.13838
833 1 7.65241 2.77695 5.14898 0 0.582368 -1.52555 -0.627644
452 1 9.26317 0.912505 3.97289 0 -1.06225 1.26008 -0.58671
640 1 9.28848 2.91233 4.96894 0 -0.429468 -1.41131 -0.940296
199 1 7.74016 3.84832 3.0592 0 -0.759654 -0.250496 1.55582
744 1 7.76345 3.53189 2.0846 0 0.388077 -0.986128 1.39189
773 1 7.18094 1.3575 5.31536 0 0.284505 1.59201 0.667061
189 1 8.20487 1.0965 2.88837 0 0.00645726 1.74537 -0.118494
77 1 7.10975 3.63988 3.79202 0 -1.04803 -0.970639 -1.0099
912 1 7.92715 0.682729 1.99069 0 -1.04567 -1.40196 0.0386679
944 1 6.52487 0.067811 2.89581 0 0.420929 1.55654 0.678523
985 1 10.1298 0.365872 3.86095 0 0.230483 1.50133 -0.867919
35 1 8.5725 4.14529 3.58285 0 0.146671 1.60057 0.690687
990 1 8.3919 4.51746 2.57445 0 -0.877182 -0.400546 1.45963
194 1 8.07759 4.6482 0.480772 0 -0.849597 0.517288 -1.4391
752 1 6.90582 3.59144 5.24364 0 -0.0725888 -0.831349 1.53753
925 1 6.18945 3.57331 4.40083 0 1.09148 -0.937944 0.99465
979 1 8.27754 2.79089 1.44641 0 1.68156 -0.290632 0.385078
181 1 7.59435 1.70746 3.39154 0 -0.817303 0.924386 -1.24013
767 1 7.80221 4.43524 1.68012 0 1.4016 -0.911132 0.51552
496 1 10.3049 1.67268 1.17025 0 -0.924138 1.13472 -0.958532
412 1 5.68845 3.27601 0.668481 0 1.14126 0.870797 -0.999821
574 1 6.50167 2.56262 5.32303 0 -0.870954 0.470932 1.44224
811 1 8.24787 1.34356 4.14412 0 0.681541 0.0983378 -1.60818
679 1 8.75043 4.84333 1.70325 0 1.28809 -1.17874 -0.108544
240 1 10.2467 3.4781 1.38333 0 0.300967 -0.110073 -1.7198
69 1 6.42793 1.45224 4.66563 0 1.19485 0.419537 1.20695
896 1 8.38947 3.75698 0.992735 0 0.188259 0.582142 1.63892
547 1 7.38414 5.00778 3.2978 0 -1.37019 -1.07446 -0.168835
269 1 9.63445 4.47015 3.60902 0 1.4721 -0.00913178 -0.945116
842 1 8.7477 5.35705 0.667903 0 0.398078 -0.681582 1.56121
721 1 6.89116 4.85262 2.21448 0 0.43098 -0.35575 -1.65774
306 1 8.60503 2.29084 2.54975 0 -1.57155 0.581833 -0.502094
34 1 9.53088 5.39155 1.3415 0 -1.25471 -1.05396 -0.612599
233 1 7.85053 3.74041 4.84827 0 -1.26068 -1.20857 0.102166
544 1 7.94728 4.80083 4.18813 0 -1.63258 0.549581 -0.305025
506 1 9.6804 1.01151 4.97056 0 1.11375 -1.27962 -0.427256
273 1 8.38528 2.31738 4.40176 0 1.16323 1.29572 0.168567
418 1 7.72544 1.25539 0.880291 0 -0.434812 -1.07263 -1.31179
107 1 7.06661 4.39959 4.61204 0 0.782281 -1.15718 1.05327
900 1 6.59131 1.46313 1.53105 0 -0.274341 0.964332 -1.4336
589 1 6.42921 2.44646 2.31739 0 1.63902 -0.386961 0.473569
763 1 8.31171 0.304617 4.27794 0 -1.26809 0.406549 -1.13449
14 1 6.94481 2.04661 0.792264 0 -0.0154572 0.468696 -1.68537
85 1 7.20643 2.60003 1.57853 0 1.49219 0.820879 -0.399902
611 1 7.29072 1.78448 2.1997 0 -1.33608 -0.76438 -0.831278
187 1 8.20937 1.77657 1.6598 0 -1.69181 -0.445163 -0.000835533
552 1 6.52545 4.521 3.79086 0 -0.347841 -1.49695 0.835797
714 1 7.39564 1.87418 4.5083 0 0.724358 -1.19458 -1.05294
202 1 10.0785 2.27829 2.19014 0 1.27302 -0.391012 1.13443
411 1 6.41191 0.179997 3.85808 0 1.18623 -0.236218 1.2639
467 1 8.8318 3.92431 4.74724 0 -0.533696 -1.27019 -1.07805
124 1 8.64166 0.845207 5.11523 0 0.779703 -1.31002 -0.858087
992 1 9.16958 1.82121 4.92747 0 0.271354 -1.53404 0.795923
146 1 9.25175 1.74811 1.61104 0 -0.849216 -0.94856 -1.19978
868 1 8.63945 1.66206 0.716906 0 -0.635791 -1.35368 0.907587
123 1 5.54153 1.8968 3.03441 0 -1.38836 0.909586 0.552728
741 1 9.97417 3.31038 2.34791 0 -0.163008 -1.25846 -1.2042
637 1 7.24253 3.96739 0.711922 0 0.793019 1.00206 -1.19474
83 1 6.98262 0.936646 0.281779 0 -0.0884526 0.927235 -1.48081
774 1 6.30661 2.95651 1.50994 0 1.07819 -0.849986 -1.08417
880 1 5.97686 0.593049 4.70896 0 -1.69045 0.446967 -0.0546409
612 1 5.92209 4.14818 1.37568 0 1.2102 0.810041 -0.969349
530 1 9.87002 0.382557 0.559864 0 0.342601 1.41367 -0.97189
874 1 9.99219 4.33349 0.141013 0 -0.402401 -0.854802 -1.47234
62 1 7.71041 2.63782 3.74261 0 1.68236 0.184977 0.442561
916 1 7.10022 0.876165 3.13911 0 1.12133 1.32879 0.193217
699 1 6.88845 0.696166 2.045 0 -0.869975 1.11895 1.02543
649 1 9.69098 4.27709 1.82961 0 1.42373 -1.01481 -0.0594491
428 1 9.66952 3.66028 5.32517 0 -0.328654 -0.0476197 -1.71759
551 1 8.75778 2.65262 0.361842 0 -0.685775 -1.49908 0.585549
38 1 9.34927 3.37527 0.68817 0 -1.27816 -0.95608 0.715982
148 1 8.1383 1.81006 5.35363 0 1.71572 0.0471102 0.338333
756 1 9.30553 4.53969 0.859154 0 0.116657 -0.990811 -1.43704
222 1 8.77718 0.896102 1.42798 0 -0.417242 -1.61513 0.526935
278 1 7.85219 5.42338 2.46899 0 -1.61179 -0.582816 0.350495
439 1 9.43786 0.0868192 4.56647 0 0.274829 0.481294 -1.65928
223 1 8.67845 5.32784 3.58051 0 -1.09631 1.29548 0.424547
286 1 6.45056 5.42974 4.84491 0 -1.25133 1.1814 -0.314432
65 1 8.35975 0.433719 0.339177 0 1.13329 0.66573 -1.1545
328 1 5.84635 0.913844 1.85302 0 1.13819 -0.917306 -0.960971
664 1 10.0525 3.4777 3.34104 0 1.19075 1.25266 -0.270864
475 1 7.38763 5.09797 1.05547 0 0.33016 -0.357467 1.68036
835 1 8.29932 0.0198979 3.27247 0 0.227438 -0.573931 -1.63685
23 1 9.54847 5.27422 2.58822 0 -0.39867 -1.65257 0.412874
424 1 6.34098 4.97221 0.936292 0 -1.24094 0.0986044 -1.22912
754 1 5.90721 1.22213 0.377909 0 0.561539 -0.881191 -1.40306
550 1 10.2332 2.79952 0.535375 0 -0.133786 1.7255 -0.255253
449 1 9.50335 5.21942 4.43455 0 -1.32844 0.38582 -1.07088
638 1 7.55259 2.92365 0.660918 0 0.4363 1.6927 0.0693366
408 1 7.82847 2.01275 0.0385829 0 0.533929 1.59654 0.475807
534 1 9.66083 1.96387 0.485905 0 -1.0832 0.677784 -1.19486
537 1 6.07353 0.115264 0.0880697 0 0.905767 -0.929054 -1.17339
618 1 3.83283 9.79097 3.08825 0 -0.422333 1.57552 -0.632274
340 1 2.88097 9.91761 3.51747 0 -0.526671 -0.157522 -1.66078
274 1 1.19541 5.93345 2.23761 0 0.51728 1.16769 -1.19555
685 1 1.079 9.91403 0.131177 0 -0.746425 0.949729 -1.26541
445 1 4.12064 5.57555 3.86032 0 -0.433727 -1.5072 0.774998
90 1 2.30843 5.58732 1.629 0 0.841912 1.17424 0.98628
596 1 0.938897 10.0563 3.2345 0 -1.60157 -0.58305 -0.394222
807 1 1.61418 10.0939 1.17766 0 1.43721 0.172328 -0.982412
125 1 0.311354 6.18376 2.75326 0 1.26726 -0.797436 -0.904733
155 1 4.4875 6.22337 4.58499 0 -0.857532 1.1888 -0.954873
228 1 1.20828 5.61439 0.190091 0 -0.325605 1.19895 1.23162
108 1 4.99422 6.6985 3.50276 0 1.05624 -1.39221 -0.0807182
838 1 4.61048 9.86653 4.42952 0 -1.07152 1.29748 0.478319
281 1 1.7539 10.0811 4.94596 0 -0.588265 -1.12755 -1.20124
617 1 5.3207 5.86841 3.17603 0 0.250294 -0.543026 -1.64404
972 1 3.26637 5.7113 2.19958 0 0.357295 1.69419 0.249915
848 1 3.39805 9.78909 1.09605 0 0.612663 1.10695 -1.20818
907 1 2.66912 9.60864 2.57176 0 -0.294548 -0.44081 -1.66713
840 1 4.66096 10.1468 2.50712 0 1.47391 -0.194837 0.921968
846 1 5.43905 6.30871 4.69427 0 -1.17141 -0.923627 -0.913851
371 1 2.3589 8.93208 5.12488 0 -0.736549 0.243695 -1.56796
209 1 3.4274 9.02103 0.429966 0 -0.310367 1.05984 -1.35677
190 1 3.24221 6.31661 3.0232 0 0.705511 1.38202 0.80789
856 1 1.78225 9.59576 2.12113 0 -0.647602 0.675735 -1.47797
852 1 0.918141 9.36825 1.03487 0 0.876629 0.727009 -1.32792
63 1 5.37572 7.14521 2.67098 0 -0.330456 1.71643 0.0713059
339 1 2.42579 6.16498 5.07341 0 -0.780003 1.46511 -0.552669
790 1 2.19678 7.14427 4.7721 0 -0.322969 1.71093 0.169741
563 1 2.18367 8.70419 2.30253 0 -0.339973 1.5139 -0.808044
487 1 3.69681 9.42649 4.07624 0 0.874836 -0.184302 -1.50369
518 1 1.03373 5.99926 4.30048 0 0.180217 -0.654011 -1.61251
521 1 2.55498 9.47562 1.57016 0 -0.137457 0.535801 -1.65965
705 1 2.91859 9.96881 4.74143 0 0.710569 -1.27311 -0.966786
79 1 4.44429 6.87084 2.48647 0 -0.615026 1.59862 -0.35576
312 1 3.85663 8.41004 3.78763 0 0.162958 -1.46058 0.948974
657 1 2.60728 6.26876 3.98626 0 -0.571633 1.49778 -0.7002
373 1 3.40599 8.84269 4.98341 0 0.812045 0.939553 1.23216
78 1 1.25962 6.96537 5.42691 0 -1.17232 -0.959098 0.875324
225 1 3.5698 5.7534 0.992359 0 0.552673 -1.44622 0.814496
266 1 2.17334 5.70507 2.75351 0 0.399916 1.22031 -1.18798
20 1 3.11819 7.18539 1.93686 0 0.825142 1.334 0.774591
724 1 2.09688 9.31684 4.15623 0 0.179306 -0.289341 -1.71596
43 1 4.53265 7.66449 3.56474 0 1.43853 0.246445 -0.964521
46 1 4.27636 9.1998 1.2052 0 -0.52677 1.20853 -1.14994
374 1 4.75347 8.92612 3.7108 0 -1.16147 0.221082 -1.28939
210 1 3.09263 7.76855 3.71746 0 -0.777027 -1.54135 -0.284349
109 1 4.99994 9.29562 1.91805 0 0.900835 -0.204253 -1.48566
262 1 2.9373 8.79588 4.11024 0 1.71223 -0.167572 0.317154
305 1 0.976332 8.20117 3.86398 0 -1.18193 -1.23258 0.379696
401 1 4.95571 5.86257 2.24368 0 -1.14918 -0.045848 -1.31821
28 1 1.47773 6.97893 3.88561 0 -1.37361 -0.225989 1.0595
564 1 5.18098 7.5211 1.79828 0 -1.23874 0.540808 -1.1106
627 1 2.70349 6.15629 0.434565 0 1.60259 0.602732 0.358924
171 1 3.57515 7.98948 0.796708 0 -0.730402 1.3981 0.75645
634 1 2.78638 6.38548 1.41801 0 0.219694 1.73508 0.0402652
102 1 1.5597 8.6871 1.49839 0 -1.66669 -0.472411 -0.243696
806 1 3.58127 7.39287 2.93993 0 -0.819914 1.45541 -0.519533
540 1 2.09308 8.57732 3.34824 0 -1.36088 0.117156 -1.09302
665 1 4.38479 10.1735 1.47599 0 0.729857 0.500764 1.50895
485 1 3.3438 8.8277 1.46219 0 0.695527 1.55012 -0.416857
803 1 1.92321 7.86926 5.43851 0 -1.49955 0.312409 0.845074
392 1 2.57583 7.81067 2.69059 0 -0.0820094 1.59956 -0.703626
32 1 3.11747 8.63645 3.02424 0 -0.102538 -0.727767 1.58753
60 1 1.79581 9.55973 3.17569 0 0.200756 1.47202 -0.923711
561 1 4.23129 8.4729 1.86957 0 1.54563 0.819317 0.0122859
643 1 2.19958 8.00913 4.23978 0 -0.0391568 1.39761 -1.05145
320 1 5.04294 8.12815 4.25501 0 -0.803218 1.50541 0.385967
345 1 1.74108 7.65372 2.07966 0 -1.01199 1.31144 0.562484
884 1 2.45384 6.98815 3.27585 0 -1.5232 0.564788 -0.649055
297 1 0.841839 6.65073 1.72004 0 -0.653949 1.57371 0.395198
245 1 0.75791 7.68041 1.50059 0 -0.88692 1.05956 -1.0729
301 1 1.10024 8.69642 2.78732 0 -1.18524 1.28421 -0.0800855
957 1 1.28303 5.77093 3.2603 0 0.58818 1.22042 -1.10681
490 1 4.45171 7.94758 2.63662 0 1.10575 1.35092 0.112915
180 1 2.06103 9.18626 0.689886 0 -0.278265 -1.53726 -0.787269
683 1 4.18645 7.45321 1.67965 0 0.211491 1.65922 -0.512492
195 1 0.883746 7.45217 4.60653 0 -0.616017 -0.941101 1.33987
119 1 0.674005 8.65286 1.70008 0 -0.867449 1.47062 -0.381046
819 1 2.0486 6.73118 2.22202 0 -0.725675 1.57126 -0.254813
615 1 4.34548 6.41862 1.51745 0 0.412097 1.6489 -0.414363
941 1 1.20707 6.74514 2.84323 0 -0.667858 1.5989 0.240567
283 1 1.59557 7.7492 3.09678 0 -1.44943 0.91047 0.361392
641 1 0.631806 7.47882 3.07687 0 -1.63958 0.606862 0.0623138
268 1 2.44764 8.24444 1.29936 0 -0.221691 0.866261 1.50361
316 1 0.0722274 5.55961 1.6695 0 -1.62647 -0.609558 -0.208438
706 1 3.34592 8.08136 2.14729 0 0.555071 1.35203 -0.961413
254 1 0.740098 9.11952 3.60713 0 0.306199 -1.65541 -0.47567
695 1 1.4018 6.15122 0.990669 0 -1.16195 0.687675 1.11238
361 1 3.40035 5.88229 4.66662 0 -0.79242 1.22674 -0.963111
628 1 3.24484 6.86648 4.87555 0 -1.31983 1.10402 0.315566
72 1 4.29939 8.9382 2.83191 0 -0.823308 1.45864 -0.504918
675 1 0.634082 9.59982 2.32976 0 -0.756853 1.19899 -1.02469
66 1 4.50875 8.87861 4.6941 0 -0.514212 1.66032 -0.198277
74 1 3.57242 6.75478 0.794225 0 -0.803005 -1.52113 -0.318976
505 1 2.87085 8.0259 5.02475 0 -0.832063 0.405284 -1.48453
331 1 3.91313 7.56195 4.37901 0 1.17823 -1.14769 -0.595813
940 1 1.08705 9.79095 4.24615 0 1.1802 0.67645 -1.09997
692 1 4.03705 6.58863 3.55306 0 1.41039 1.02675 -0.130259
965 1 4.09038 5.61118 2.86515 0 -1.68845 -0.446031 0.102854
444 1 5.25309 8.48399 2.52138 0 1.30473 1.12616 0.299717
241 1 0.386535 6.11453 0.709053 0 -1.51886 -0.52242 0.693209
425 1 0.553487 6.69773 3.72219 0 -0.943773 0.127047 -1.4675
136 1 0.182231 7.88768 2.30204 0 -0.0183577 0.572515 -1.65296
936 1 4.79333 7.96868 0.998239 0 -0.630473 -0.325364 -1.59908
186 1 5.22444 8.85527 0.486513 0 -0.33476 -1.2526 -1.17445
279 1 0.729078 5.93736 5.4109 0 -0.927935 0.370066 -1.4361
493 1 2.70484 7.28508 0.422187 0 0.651447 1.51173 -0.592179
660 1 5.03023 7.1764 4.5482 0 0.956291 1.45974 0.122775
795 1 1.70682 7.42188 1.0245 0 1.34206 -0.178169 1.10794
986 1 4.12951 9.6581 0.239834 0 1.59932 0.491793 -0.51059
434 1 0.0835246 6.15302 4.59366 0 0.0596019 0.13345 -1.74328
565 1 0.0611411 9.89601 1.57863 0 -1.18472 -1.18341 0.506339
173 1 0.064599 9.84359 4.04228 0 0.607341 1.64057 0.00869534
981 1 0.866692 7.14825 0.578713 0 0.881786 1.46834 -0.356114
771 1 0.270127 7.00001 5.18782 0 -1.72217 -0.188126 0.243193
156 1 4.97122 7.8357 5.33976 0 -0.958377 1.02421 1.04542
871 1 0.0201297 9.65795 5.08232 0 -0.594168 1.31354 -0.99095
13 1 0.159269 8.44747 3.08413 0 -1.26007 0.169357 -1.20164
258 1 0.264101 8.87585 4.46828 0 0.691118 1.57055 -0.34078
782 1 0.0800214 7.66856 4.13802 0 -0.243658 -1.72451 -0.164632
481 1 0.0767942 9.63334 0.399875 0 -0.289233 1.32595 -1.1039
877 1 5.32063 6.85482 0.897673 0 -1.74402 -0.132027 -0.0370714
104 1 0.409489 8.2233 0.561128 0 -1.12359 1.33848 0.0800885
542 1 0.0496456 8.10775 5.00695 0 0.0178419 0.907982 -1.49521
975 1 1.65464 5.50163 4.95839 0 -1.26116 -0.612806 -1.04611
335 1 3.76486 7.96916 5.39453 0 -1.73275 -0.0127191 -0.240441
71 1 1.6559 6.59452 0.0163095 0 0.657192 0.993648 1.28108
248 1 4.24256 8.5792 0.21388 0 -1.4513 0.524546 -0.824001
440 1 4.41281 7.16436 0.568546 0 -1.20772 0.985239 -0.79443
910 1 4.24664 7.03277 5.45238 0 -0.128446 0.788329 -1.55642
826 1 1.37506 8.39801 0.497918 0 -1.073 -1.35 -0.294228
956 1 1.39703 8.83951 4.7751 0 -1.70242 -0.0533935 0.399155
725 1 4.76082 6.00864 0.443973 0 -1.48193 0.680602 -0.633308
253 1 6.73486 6.40124 4.33678 0 -1.56943 0.344527 -0.691805
58 1 8.8826 9.5595 4.35043 0 1.44182 0.66758 -0.732052
70 1 9.69284 5.54687 0.244443 0 0.0219728 0.0268308 -1.74906
935 1 8.63054 10.2198 1.76027 0 1.44591 0.191225 0.966009
687 1 6.59398 6.07155 1.38647 0 -0.826748 -1.4974 0.366976
106 1 7.81399 5.85405 3.78124 0 -1.14647 0.631738 -1.16056
6 1 7.43178 10.1555 3.63432 0 0.543742 1.64261 0.258002
482 1 7.72457 6.29548 5.41749 0 -1.56027 -0.76247 0.211156
590 1 8.59716 10.0749 5.11656 0 -0.386052 -0.980137 -1.39667
497 1 5.52067 9.9181 3.15624 0 -0.0538789 0.104295 1.74546
293 1 10.2028 6.95877 1.71106 0 -1.10581 -1.33486 0.236066
570 1 5.58176 10.2261 1.96204 0 1.30927 -0.731242 -0.900833
865 1 5.83936 6.34375 2.15607 0 -1.67489 -0.178068 0.472678
549 1 5.51703 9.57795 1.11428 0 -0.516369 -0.911957 -1.40075
973 1 5.55722 9.5141 4.11776 0 -0.318599 0.44886 1.66055
420 1 5.77013 8.57892 1.47487 0 -0.35478 -1.53897 0.752393
836 1 6.60122 8.34795 2.82186 0 0.84229 1.51027 -0.26461
251 1 5.74697 8.83175 3.42488 0 -1.01904 0.993231 1.01758
389 1 10.1681 8.03306 1.35944 0 -1.28098 0.985514 0.669513
584 1 10.0342 7.05 2.99874 0 -1.39679 -0.965441 -0.421069
689 1 5.53457 5.85467 1.00685 0 0.107473 1.40395 -1.03816
684 1 5.47989 8.98864 4.97593 0 -0.113557 -1.59331 0.713354
364 1 10.2383 10.0739 3.01104 0 -1.64886 0.0392511 -0.583199
40 1 7.41902 5.52439 4.88356 0 -1.58745 0.307324 -0.6678
681 1 7.25127 8.94575 2.00961 0 -1.046 -0.162515 -1.3928
978 1 6.83417 5.80812 2.6564 0 0.989388 0.0322356 -1.44238
636 1 7.49463 6.5057 2.26386 0 0.487008 1.56158 0.620227
653 1 9.27764 10.1282 3.53166 0 -0.589219 1.54713 -0.565332
15 1 7.66414 6.78903 3.27179 0 -0.039886 1.73233 0.240503
837 1 9.18542 7.22708 1.60414 0 0.521061 -0.236284 1.6532
291 1 9.92822 9.13629 3.5228 0 0.871224 1.1045 1.03992
671 1 5.9002 7.83538 3.25349 0 0.991798 1.41264 0.284936
964 1 7.03078 7.06013 1.34613 0 -1.18795 -1.07802 -0.697892
5 1 6.06894 7.14075 5.02669 0 -1.41282 -0.915948 -0.47474
934 1 6.89748 8.05591 1.67808 0 -1.50675 -0.368036 -0.809113
656 1 9.98556 9.0193 1.10057 0 -0.276786 1.2834 1.15615
625 1 6.71933 8.50445 3.78861 0 -1.08468 -0.539733 1.26196
406 1 5.92809 7.08918 3.92505 0 0.155799 1.62013 -0.641335
769 1 7.63676 9.82315 1.37982 0 -1.50068 0.730543 -0.524079
539 1 9.78208 6.32721 1.04292 0 -0.446719 -1.54766 -0.682332
780 1 6.19336 6.39788 3.17464 0 1.1228 0.451074 -1.26343
447 1 7.37925 7.56631 2.34369 0 -0.84308 0.60857 -1.40686
488 1 9.88597 6.90354 4.12471 0 -1.5991 -0.698277 0.125195
784 1 6.04402 5.78022 3.98152 0 -0.911084 -0.364646 -1.44823
553 1 8.48415 6.70581 4.37398 0 -0.680952 1.55938 0.406253
762 1 6.37765 6.83314 0.542025 0 -1.65391 0.122643 -0.556728
598 1 7.52931 7.89798 0.821909 0 0.446056 -0.394628 1.6449
918 1 6.71911 10.1027 1.67402 0 -0.53581 1.6653 -0.00920105
116 1 7.38973 7.74448 3.49787 0 -1.72041 0.24036 -0.206958
227 1 8.85052 8.88544 3.50299 0 0.129164 1.69371 -0.418402
902 1 6.61754 7.01427 2.48204 0 -1.40266 -0.114796 -1.03911
252 1 7.57741 8.95356 0.78435 0 -0.107451 0.479826 1.67887
134 1 7.61484 9.06896 3.77872 0 -0.668475 1.06068 -1.22004
113 1 9.47133 7.78891 4.53072 0 0.15187 -1.36701 1.08102
322 1 6.6427 9.49408 4.18155 0 -1.28175 1.10246 -0.449549
380 1 8.27452 9.69053 0.533888 0 -0.540994 1.55745 0.584859
746 1 8.61783 5.86134 2.01926 0 -0.257582 -1.55817 0.75244
585 1 9.17104 9.76097 2.59957 0 0.749636 -0.487273 -1.50367
415 1 9.17364 8.88096 0.281093 0 1.51664 0.864323 -0.114638
163 1 9.37804 6.2296 4.51104 0 -1.67091 -0.0523697 0.51547
332 1 9.12026 6.86105 3.49986 0 -1.41229 0.95399 0.394633
1001 2 9.48273 9.45798 1.72366 -13.626 0 0 0
593 1 8.40859 7.1277 2.68986 0 -0.244085 1.65311 0.517725
592 1 7.69573 6.1994 1.27994 0 -1.24549 0.0276508 1.22817
787 1 9.54234 5.92541 3.35783 0 -1.58443 0.547253 -0.500485
748 1 10.0185 8.80666 2.19501 0 -0.922511 1.00992 -1.09061
243 1 7.82678 9.16434 2.75215 0 -1.02027 0.495387 -1.33193
515 1 6.61699 7.64338 4.29641 0 0.887637 0.770597 1.29564
731 1 7.45516 10.0816 2.40767 0 -1.31379 0.395193 -1.08544
232 1 8.65313 9.17675 1.40349 0 0.686666 1.47248 0.648598
325 1 9.72835 6.19924 2.12543 0 -0.433737 -1.61793 0.50455
847 1 7.15127 10.2223 4.7185 0 1.11404 -1.24563 0.51742
183 1 8.36484 7.46825 3.80457 0 -0.76895 1.55424 -0.23117
920 1 8.54396 5.66436 4.58803 0 -1.43671 0.166023 -0.984233
508 1 9.28963 7.63627 2.48543 0 0.660586 0.807766 1.40412
359 1 8.58678 6.18808 3.04037 0 -0.894784 1.42099 -0.490444
794 1 6.07931 9.15503 2.2796 0 0.616324 0.610539 1.51914
221 1 8.07813 8.36591 1.65907 0 0.251738 1.72574 0.137326
99 1 8.97438 8.78029 2.34414 0 0.917558 0.633454 -1.34804
642 1 6.67836 9.41407 2.96615 0 -0.325452 0.169508 1.71048
285 1 9.24089 9.86063 0.91327 0 0.351866 -0.46884 1.64827
859 1 8.10041 7.30866 1.63764 0 -0.176401 1.60015 0.684686
717 1 8.27817 8.52178 4.26817 0 1.0538 0.426476 -1.32967
909 1 9.25847 8.37297 1.4213 0 -1.56511 0.677987 -0.388794
308 1 6.354 7.91755 0.902574 0 0.0688328 -1.69548 -0.425453
284 1 6.89963 8.29129 0.158279 0 1.66303 0.103268 0.532979
888 1 7.44833 7.05486 4.76313 0 0.310597 -1.24005 1.19423
1002 3 8.21194 8.81522 0.0499866 13.626 0 0 0
139 1 8.2338 8.22799 3.10553 0 -0.168308 1.72084 0.266054
342 1 8.86616 8.57991 5.30682 0 -0.482631 -0.590197 -1.57453
441 1 6.05488 7.2167 1.55976 0 -1.58259 -0.544786 -0.508927
961 1 9.45367 8.7697 4.34858 0 0.257385 -1.70814 -0.276439