ITEM: TIMESTEP
0
ITEM: NUMBER OF ATOMS
1002
ITEM: BOX BOUNDS pp pp pp
0.0000000000000000e+00 1.0346399999999999e+01
0.0000000000000000e+00 1.0346399999999999e+01
0.0000000000000000e+00 1.0346399999999999e+01
ITEM: ATOMS id type x y z q mux muy muz
972 1 3.50079 4.60813 0.143792 0 -0.885319 -1.36861 -0.635237
643 1 5.11762 4.55488 4.39286 0 0.214413 0.394597 -1.69078
194 1 2.68139 3.89575 4.89261 0 0.0235641 1.31397 -1.1547
692 1 4.63999 4.45868 0.438115 0 -0.996145 0.0412867 1.43749
452 1 1.71838 2.62947 1.85213 0 0.282257 1.61906 0.59949
476 1 1.35435 4.44531 2.65269 0 -0.113598 -1.41859 -1.01739
433 1 1.60225 2.16797 4.26563 0 -1.25952 -0.0402383 -1.21343
329 1 4.51494 4.181 3.44313 0 -0.851896 -1.14322 1.01376
197 1 0.650078 3.96898 4.30646 0 -1.20287 -1.01417 0.764824
788 1 3.56634 3.10336 4.19336 0 -1.01304 -0.745888 -1.21564
852 1 2.94886 2.19868 2.28132 0 1.09031 0.700947 1.17486
216 1 0.915467 2.06979 2.37348 0 0.413085 -0.578983 -1.59829
219 1 1.96675 3.41264 2.6825 0 0.942734 -1.21741 0.830395
743 1 2.9225 4.07558 2.5947 0 -0.607767 1.59419 -0.386754
252 1 2.3566 2.17653 3.45305 0 -0.768978 -0.758337 1.37623
961 1 3.9642 3.31588 3.29029 0 -1.70382 -0.208136 -0.33775
919 1 4.92071 3.95168 2.49683 0 -0.676852 1.58325 -0.30917
303 1 4.37758 0.953578 2.62502 0 -0.252989 1.63953 0.555292
121 1 3.60269 5.23643 2.06722 0 -1.24963 -0.79175 0.933782
722 1 2.71646 3.00307 3.018 0 1.0767 -0.467121 1.29727
374 1 2.67515 4.51196 4.14301 0 -1.20289 0.384949 -1.21048
827 1 3.68202 3.21143 2.2944 0 0.895762 1.4693 -0.314929
156 1 1.487 4.46695 0.725617 0 -0.740412 1.38666 0.767704
408 1 3.99665 4.06208 1.8698 0 0.543757 -0.0826168 -1.66069
259 1 1.70333 3.90905 1.72859 0 1.03084 -1.41205 0.0622066
559 1 4.92425 0.651101 3.55375 0 0.311445 0.221363 -1.70716
287 1 1.22002 3.54744 3.41708 0 0.781694 -0.974918 1.22429
218 1 1.97155 5.36731 3.97756 0 0.979631 1.3975 0.384356
70 1 2.18125 4.46381 3.30707 0 -1.66816 -0.296851 0.435332
720 1 1.33669 1.64038 3.38425 0 -1.32225 -1.09145 -0.34756
854 1 4.31527 0.943536 4.34326 0 0.705183 -1.4792 -0.612438
410 1 2.45082 4.57165 0.468315 0 -1.58893 0.710428 0.176059
84 1 5.15142 2.29657 1.53428 0 0.161048 -0.857636 -1.51622
380 1 3.12637 0.703939 3.8496 0 -0.433366 -1.67046 -0.286611
778 1 2.4299 2.63614 5.43997 0 1.37608 0.0536745 1.07885
916 1 2.6826 1.0599 2.24816 0 1.3171 -0.051653 1.15021
990 1 2.75001 2.51485 4.4343 0 0.439396 -1.46341 0.85191
443 1 4.19431 0.749349 0.519506 0 0.0983429 1.58725 0.728945
939 1 4.50156 3.47825 4.25895 0 -1.70524 -0.0153187 0.390271
1 1 3.95967 4.36315 4.30143 0 -0.651913 0.162317 1.61526
807 1 3.29177 3.92477 3.56023 0 0.177154 1.39269 -1.04376
278 1 1.04879 0.12407 2.01457 0 0.14208 1.73244 -0.19712
833 1 2.79461 1.54741 1.02854 0 0.900014 -1.3195 0.713652
850 1 3.0599 4.44516 1.28193 0 -0.118959 -1.17715 -1.28863
591 1 3.85439 1.71745 0.877435 0 -0.051504 1.60073 -0.703861
4 1 3.63973 2.40854 2.96533 0 1.35357 -0.774135 -0.79308
516 1 2.26916 1.07814 4.36254 0 0.720314 0.716239 1.42427
766 1 5.19385 4.88297 2.96997 0 -1.14761 0.563695 1.194
295 1 3.74982 0.221251 3.10365 0 0.783106 0.812164 1.33699
45 1 4 2.27267 1.79869 0 0.0866074 1.7359 -0.198867
857 1 4.49259 2.71319 4.87692 0 0.532794 1.03165 1.30852
683 1 2.14946 3.34277 3.843 0 1.44949 -0.0250369 0.979155
801 1 1.87094 1.8105 2.58325 0 1.23071 1.20011 0.324793
343 1 3.42177 1.47395 2.88498 0 1.33121 -0.894964 0.698086
908 1 3.84453 4.48949 2.77216 0 1.4543 0.0904576 -0.96811
379 1 3.42136 2.81686 1.18206 0 -1.00782 0.807874 1.17985
308 1 0.446657 0.029373 3.29071 0 -0.658697 -0.756082 1.43348
386 1 1.82765 4.48048 5.20039 0 0.154825 1.32895 1.12708
186 1 4.28841 2.4968 3.84985 0 0.551949 0.884397 1.40485
488 1 4.43481 4.80657 5.07042 0 1.73084 0.0352119 0.25168
1002 3 5.16079 0.663723 1.98613 13.626 0 0 0
470 1 3.70569 5.42316 4.14941 0 0.761197 0.987829 1.22685
351 1 2.1156 1.64444 0.235051 0 0.435826 0.72643 1.53061
57 1 4.47624 3.73442 5.30611 0 -0.97425 1.44877 -0.110979
781 1 0.930096 1.92009 4.89767 0 1.50574 0.519804 0.723145
582 1 4.59784 3.22363 1.92849 0 1.07954 1.19531 0.682808
606 1 0.589962 3.1435 2.56314 0 1.14635 -0.70358 1.1186
937 1 4.82352 2.20545 0.490718 0 0.753647 -0.407122 -1.52534
609 1 1.1824 2.27246 0.422915 0 1.70875 0.297592 0.228041
314 1 4.17363 0.0753531 1.90005 0 -1.18775 -1.28164 -0.084046
395 1 2.55582 5.12795 2.23893 0 -0.0794869 1.70877 0.366327
583 1 0.75548 4.10514 1.79908 0 0.622651 -0.166927 -1.6263
768 1 3.52938 0.894495 1.54301 0 1.43054 0.399692 0.924238
465 1 1.82007 0.824391 0.856854 0 -0.0362458 -1.61202 0.678584
242 1 1.88928 3.06958 4.80972 0 1.00257 -0.973575 1.05233
907 1 0.267049 1.8026 1.16734 0 -0.323662 1.71885 0.0347378
522 1 2.9337 3.60445 0.504365 0 -1.48084 0.0457157 -0.930279
440 1 1.53077 1.73521 1.48379 0 1.02363 1.39607 0.252106
124 1 2.65162 3.27758 2.0033 0 1.40371 -0.147428 1.03357
640 1 2.13042 2.5372 0.975512 0 0.37526 1.51018 0.799329
349 1 4.61935 2.22971 2.57076 0 1.58754 0.620375 -0.394009
378 1 1.37879 2.6 3.11575 0 -0.48962 -1.6595 0.258295
286 1 0.193782 1.76811 4.14473 0 0.450869 1.41843 0.919327
624 1 4.6111 0.468909 5.35934 0 -1.52309 -0.854777 0.099755
617 1 4.15294 1.50415 3.52388 0 1.17121 1.00118 0.828436
671 1 4.48062 1.40005 1.71054 0 -0.633017 1.62792 -0.0977273
829 1 0.122752 0.352467 2.28963 0 0.0862399 0.363061 -1.70914
557 1 1.05294 5.16721 1.93172 0 1.59411 0.632782 0.344687
120 1 2.32531 1.12227 3.22636 0 -1.59937 0.191859 0.682361
159 1 2.61621 0.447624 1.34406 0 1.32822 -0.0154577 1.13841
509 1 1.25438 1.06109 4.3299 0 1.70814 -0.37278 0.0607445
985 1 3.87302 1.51765 5.03583 0 0.000413433 -0.28761 -1.7256
744 1 3.24567 1.74721 4.02145 0 -0.185447 -1.53504 -0.818336
114 1 0.932846 2.72859 1.31315 0 -1.58776 0.734201 -0.0195063
51 1 0.217794 4.01293 2.87774 0 1.21682 -1.25622 0.0407735
307 1 1.61318 3.48789 0.865882 0 -1.39906 0.947189 -0.453721
987 1 5.03162 3.00392 3.30207 0 -0.942101 1.46403 -0.171672
719 1 0.369074 0.850663 0.689806 0 -0.471569 0.548525 1.59284
461 1 1.60677 0.957448 2.21259 0 0.88796 1.48837 0.238099
275 1 0.770799 0.955723 2.95937 0 -1.23011 -1.24237 0.0610995
903 1 0.176321 5.0866 3.04539 0 1.02867 -1.32386 0.499646
714 1 1.70771 4.25239 4.23753 0 -1.41862 0.0852062 1.02013
491 1 5.22061 1.51382 3.05636 0 0.826092 1.52076 -0.255458
265 1 3.08063 0.76748 4.95851 0 1.44682 -0.949854 0.254711
955 1 0.072828 4.51731 1.20082 0 -0.159333 1.5368 0.820528
923 1 3.62115 4.08367 5.28711 0 -0.345672 0.716071 1.55825
169 1 0.993058 4.6744 3.62369 0 0.954326 -1.24371 0.77644
742 1 1.13957 0.64054 5.40116 0 -0.910167 -1.4811 -0.195768
226 1 2.09016 4.76259 1.39942 0 0.72984 -1.21626 1.02394
362 1 0.984996 3.03317 4.35033 0 1.32755 0.202203 1.12122
684 1 3.8765 3.8641 0.856602 0 0.87905 -1.09106 -1.0475
170 1 2.84525 1.76455 5.11183 0 0.128761 -1.29989 1.16367
26 1 4.38502 2.96626 0.88954 0 -0.127665 -1.6456 -0.579757
64 1 5.40736 1.52531 1.01836 0 0.568118 -1.4349 -0.823832
5 1 1.80335 1.39935 5.19671 0 -1.40004 0.466387 0.93956
276 1 4.87983 4.231 1.43093 0 1.26357 0.432615 -1.12989
94 1 0.411356 0.701418 4.11214 0 1.15664 0.943179 0.912688
373 1 0.400768 2.87455 5.22422 0 0.324789 1.57486 0.689009
998 1 5.34475 3.29653 1.31091 0 -0.804644 0.025507 -1.55316
561 1 5.16269 1.56384 4.0984 0 0.885047 0.0149434 1.50893
992 1 0.0555664 5.27596 4.56686 0 1.00434 -0.049793 1.43151
39 1 5.36907 0.144562 4.26979 0 -1.09834 0.0889654 -1.35872
199 1 0.847648 1.09139 1.52954 0 1.39807 0.998223 -0.330685
282 1 0.378425 4.66136 5.43601 0 1.49524 0.63476 0.649405
763 1 0.260061 2.47747 0.413308 0 1.59646 0.335817 -0.631609
838 1 2.61009 0.0620627 4.43517 0 1.64002 0.502452 -0.343896
357 1 3.05844 4.99248 3.10285 0 -0.157993 -0.209007 1.72967
390 1 5.46523 0.638275 0.686873 0 1.43423 -0.965679 0.266165
33 1 1.51262 0.496653 3.48181 0 -0.470752 -1.56178 -0.632158
515 1 4.11507 5.01779 1.29013 0 -0.625321 0.134138 1.62831
251 1 2.1343 0.0309001 2.57126 0 -0.531961 0.181346 -1.65666
309 1 5.44141 5.25052 1.59866 0 0.529059 0.407308 -1.61697
523 1 1.00883 5.05596 4.64662 0 0.981139 1.25268 0.727022
139 1 3.21056 5.30082 0.828059 0 1.50119 -0.463408 -0.769473
926 1 1.5886 5.36205 3.01222 0 0.328922 -1.65316 -0.468265
263 1 3.19108 0.102095 2.3307 0 -0.279152 0.913727 1.46546
398 1 1.07673 5.38102 0.869046 0 -0.112236 1.73336 -0.208006
211 1 3.34306 0.249169 0.501552 0 1.01663 1.4012 -0.252034
619 1 2.84315 2.33401 0.274841 0 0.929587 -0.940063 1.14567
320 1 0.467423 3.67875 0.794326 0 -1.40308 1.04386 0.0462647
382 1 1.08519 0.464159 0.0308245 0 -0.0877321 0.52493 1.66648
115 1 1.90993 5.36588 0.0482453 0 0.0988139 1.73849 0.168242
99 1 3.35318 3.02223 5.18284 0 -0.302593 0.8807 -1.48095
419 1 4.82258 3.50332 0.00761709 0 -0.521876 1.59229 0.502641
625 1 1.01449 3.78145 5.17749 0 1.41461 0.671614 0.779879
590 1 0.00712771 0.933948 5.09958 0 -1.50499 0.88387 -0.119108
989 1 0.962976 0.0268729 0.936275 0 -0.823925 -1.10515 1.07712
941 1 5.84333 4.33493 1.9837 0 -0.532668 1.45387 0.814203
566 1 10.0675 0.0206646 0.969422 0 -0.874379 0.355461 1.47293
255 1 5.55676 3.95304 0.575049 0 0.727367 0.762552 -1.39637
746 1 5.53906 1.55684 2.15752 0 1.52728 0.777132 -0.351948
348 1 10.2716 1.31297 2.05296 0 0.727713 1.14613 -1.10328
367 1 5.72898 5.07248 3.83987 0 1.37988 1.02518 0.324564
890 1 6.12172 1.30778 3.69457 0 -0.87392 -1.09247 1.05032
819 1 5.86097 0.652152 2.63304 0 1.52244 -0.7786 0.369257
86 1 5.51518 1.00857 4.81938 0 -0.406691 -1.64063 0.450942
154 1 6.26748 1.17378 0.236295 0 1.28335 -0.471832 1.09124
859 1 5.54125 3.39727 4.19553 0 -1.61349 -0.314139 -0.598625
709 1 6.33 2.98674 4.89352 0 0.131068 -0.167234 -1.73645
792 1 5.74443 3.26292 2.21827 0 -0.640102 0.378167 -1.58356
58 1 10.3006 2.38442 3.03734 0 0.235851 -1.70242 -0.32641
14 1 6.44453 4.61338 0.934619 0 -0.564011 1.35526 -0.951617
735 1 6.8517 0.793686 0.979023 0 0.413721 -0.0434718 1.69922
920 1 7.31551 2.28934 0.646876 0 -0.365501 1.7095 0.066591
828 1 6.53823 3.04543 3.09679 0 0.308874 1.32113 -1.10436
837 1 5.76974 2.36948 2.9432 0 0.811851 1.46219 0.513112
718 1 6.87458 4.31406 2.06206 0 0.317386 1.19056 -1.24186
91 1 8.0835 4.02946 2.62968 0 -1.02525 0.25593 1.39419
751 1 9.4862 1.61165 4.82348 0 -0.390556 -1.54439 -0.723
460 1 9.53553 4.4995 4.4675 0 1.22577 0.542582 -1.12405
518 1 6.43828 4.14137 4.24054 0 1.11304 -0.869778 1.032
421 1 10.0322 3.65485 2.11474 0 1.55659 0.715375 0.354482
651 1 10.3398 2.79635 4.20089 0 0.712943 1.3519 0.851169
47 1 8.8185 1.62132 3.95963 0 -0.165119 1.66256 0.518686
81 1 9.34933 4.48086 1.75359 0 0.16439 -0.200333 1.7301
118 1 6.60995 1.55117 2.82826 0 -0.3054 0.947474 1.43855
733 1 7.29249 2.23259 1.94113 0 1.66591 -0.165964 -0.507554
415 1 9.88318 3.31244 3.23409 0 -0.261594 -1.58721 -0.687566
995 1 8.37657 2.03772 1.66484 0 0.844259 1.52393 0.158907
794 1 9.8498 0.559676 3.06127 0 1.39695 -0.908085 -0.533205
93 1 9.3613 0.836812 1.58911 0 -0.783854 0.388062 1.51505
983 1 8.98629 1.19461 2.85423 0 1.56423 -0.248561 0.742837
793 1 7.91673 2.34808 3.68615 0 -0.156624 -0.431958 -1.68798
337 1 9.36233 2.52045 3.76925 0 1.443 0.237382 -0.960106
283 1 6.65872 2.23943 3.66465 0 -0.451407 1.66531 -0.288771
578 1 8.65693 3.06036 3.29149 0 1.13828 -0.645987 -1.16078
101 1 8.31385 1.01495 2.12166 0 1.17395 0.798948 1.02173
900 1 7.68797 1.47687 2.84096 0 -1.12528 -1.16651 0.658324
849 1 9.27489 5.09478 3.66738 0 0.585676 -1.60461 0.377658
875 1 7.54553 2.65962 2.82047 0 -0.477511 1.56041 -0.630488
463 1 8.29514 3.41279 5.15034 0 0.614157 1.42935 -0.800114
270 1 10.0276 4.30997 3.63497 0 0.74054 -1.58406 -0.0523717
756 1 10.2833 2.62847 2.05308 0 -0.258974 1.62469 0.594747
824 1 7.3306 3.90929 4.66559 0 1.09705 0.825172 1.08442
914 1 6.48075 1.76926 1.02956 0 0.770635 0.488465 1.49262
214 1 7.96563 2.90228 1.32637 0 0.922847 1.34029 0.642171
673 1 8.99289 0.212659 3.41277 0 -1.29712 1.09275 -0.4287
964 1 9.32374 1.87116 2.11423 0 1.3399 0.100721 1.12024
9 1 6.33181 3.64147 1.44806 0 -0.625378 1.49966 0.648323
880 1 9.45687 2.70205 2.67861 0 -1.26581 -0.301057 -1.1694
387 1 7.7357 4.1216 1.55059 0 0.262038 1.34142 1.09194
898 1 6.24471 2.13278 2.01348 0 1.39617 0.827766 0.652623
741 1 5.63799 4.01181 5.16568 0 0.446497 0.532888 -1.60533
982 1 6.61203 4.5481 3.21023 0 -0.979298 -1.25356 0.727987
249 1 9.00398 3.01173 1.09969 0 -0.00190621 1.54281 -0.824696
55 1 7.3614 5.19228 1.71397 0 0.207174 1.5732 -0.736563
843 1 7.22027 3.36203 2.23022 0 0.746681 0.64788 -1.4433
633 1 8.15319 1.83747 0.489111 0 -1.59565 0.548586 -0.461911
321 1 9.57461 3.89785 0.985301 0 0.731969 1.31824 0.887053
577 1 8.46574 1.57462 5.29151 0 -1.06623 -0.71076 -1.19096
160 1 6.63804 1.26397 4.67371 0 -0.936024 1.46295 -0.209875
760 1 5.79621 2.47707 0.731885 0 1.01054 -0.583438 1.30338
642 1 7.87333 1.19074 1.22887 0 0.643417 1.0282 1.26064
238 1 5.89971 3.88173 3.03565 0 -0.661628 0.780047 -1.41922
467 1 9.17324 3.61343 4.43877 0 -0.0983807 1.56657 0.772385
363 1 8.03106 4.36559 5.46584 0 1.35456 1.10598 -0.0487746
620 1 7.5897 4.07341 3.5597 0 -1.09085 -0.364087 1.31829
301 1 7.82946 1.45547 4.56174 0 -0.988383 1.20763 -0.790653
224 1 8.16831 4.87566 3.44683 0 -1.58052 -0.113953 0.741193
797 1 9.80943 3.36633 0.135426 0 -0.878137 1.48844 -0.27168
798 1 6.99061 3.85387 0.779019 0 -0.24423 1.49273 0.878919
754 1 9.65128 0.921031 4.16376 0 0.225288 -1.13031 -1.31607
796 1 9.75984 1.58201 3.35887 0 0.923513 -0.443898 1.41791
202 1 7.18572 1.41384 3.79432 0 -1.41499 1.00717 -0.209306
223 1 6.91695 4.79945 0.0771683 0 0.325553 -0.199914 -1.70718
676 1 6.15783 5.11354 2.49817 0 -1.61258 0.298585 0.608971
715 1 7.08023 3.12344 4.09133 0 0.808684 0.745484 1.3604
653 1 6.55969 2.75438 1.22304 0 0.0186489 1.69753 0.422439
403 1 8.70785 0.822357 4.52613 0 -0.0940557 1.46542 -0.950843
7 1 8.17911 4.39022 4.39508 0 0.108582 1.69098 -0.434965
209 1 8.2708 0.158842 5.10433 0 0.00557588 1.46692 -0.953159
89 1 8.13132 0.657262 3.3319 0 -1.16481 0.240833 -1.28282
76 1 9.76991 2.33753 1.10989 0 -0.993381 0.922559 -1.10566
478 1 8.47203 3.94705 0.936527 0 -1.15168 0.536457 -1.2026
686 1 8.7578 2.53834 4.5007 0 1.54263 0.791273 -0.233604
236 1 10.2695 4.44256 0.00882842 0 -0.230802 1.08844 -1.34997
814 1 8.12249 3.39788 4.05433 0 1.2784 -1.11768 -0.420579
37 1 8.63006 3.40589 2.12037 0 -0.857773 1.11413 -1.04083
306 1 8.50132 2.17069 2.83189 0 -1.48138 -0.869148 -0.332418
500 1 7.80815 2.53748 4.69438 0 1.33584 0.998919 -0.527354
31 1 8.4363 0.823526 0.478378 0 -1.34032 1.10626 -0.200322
342 1 6.34334 3.69337 0.0459409 0 1.02338 1.28368 0.604362
784 1 7.81072 4.45569 0.410113 0 -0.371216 1.48231 -0.851679
731 1 8.94549 4.77762 5.18655 0 1.31391 0.408033 -1.08053
376 1 6.9887 0.57428 3.22089 0 -1.1365 -1.31758 -0.180981
499 1 5.98073 5.12293 5.09689 0 -1.45326 0.396982 0.889286
834 1 8.88323 4.05918 3.52718 0 -1.46798 -0.728056 0.612674
637 1 9.55052 0.908281 0.411303 0 -1.40143 0.367179 0.980602
425 1 9.52111 4.29531 2.69285 0 0.102372 -0.354009 1.71015
175 1 5.9494 2.08939 4.76748 0 -1.17079 0.835462 0.995824
698 1 7.41646 0.758508 5.21629 0 -1.61565 0.126927 -0.65877
125 1 9.0973 1.72492 0.648592 0 -1.7189 0.32321 0.0361273
899 1 7.77481 3.40545 0.28974 0 -1.27536 1.1623 -0.287966
254 1 10.1057 1.69161 0.168664 0 -0.734556 0.353606 1.54783
350 1 9.15059 3.29446 5.4663 0 0.971979 -1.45285 0.0698208
605 1 5.52292 2.84002 5.38724 0 0.401651 1.64279 0.447555
193 1 9.3686 0.673574 5.35539 0 -1.68559 0.144783 0.44521
554 1 7.08181 0.299304 4.3594 0 0.135463 0.646455 -1.61992
190 1 5.63211 4.94028 0.630018 0 -1.21792 -0.190821 -1.24123
776 1 10.2447 5.30841 1.77434 0 -0.766581 -0.572395 1.46462
215 1 9.07279 0.117415 0.92863 0 -1.53786 0.549506 0.627238
227 1 7.26734 5.14502 3.78315 0 -1.50368 -0.641211 -0.623057
339 1 8.40275 4.91602 1.38024 0 1.41029 1.00167 -0.261053
152 1 7.05615 4.92623 4.70507 0 -1.0556 1.10129 0.856316
842 1 7.6381 0.160396 0.814886 0 1.538 0.815297 -0.173949
399 1 7.61137 0.0599191 2.49915 0 -1.56462 0.405693 -0.669158
129 1 6.79991 1.17996 1.93678 0 0.0161742 -0.480112 1.68215
1001 2 6.66524 0.165495 2.32955 -13.626 0 0 0
110 1 6.06102 0.521167 1.59856 0 1.31574 -1.04495 0.487144
587 1 7.09566 5.29979 2.77137 0 -1.29377 -1.16822 -0.147729
759 1 8.22082 5.4191 2.36029 0 -0.432146 -1.52315 0.744086
748 1 9.05485 0.187371 2.38963 0 0.560807 -1.40639 0.876332
229 1 8.68877 5.22027 0.152972 0 -0.810577 1.09267 -1.09974
195 1 8.35503 0.126329 1.60386 0 0.28658 0.144609 1.7197
965 1 6.27634 0.305601 3.7464 0 0.00477036 -1.03668 1.40914
650 1 6.19943 0.307996 4.89742 0 0.856451 -0.341292 -1.48675
205 1 8.65753 2.92959 0.166757 0 -1.20348 1.14371 -0.55133
383 1 9.64858 2.63143 4.87767 0 0.820077 -0.983006 -1.1923
764 1 9.61191 5.22368 0.509386 0 -0.651506 1.39035 -0.838372
82 1 10.1628 3.73869 4.70139 0 -0.739236 -0.122168 1.58082
635 1 6.91626 2.22821 5.11879 0 0.159798 0.991895 -1.43213
534 1 8.46815 5.32931 4.46226 0 0.200049 1.65539 0.529211
146 1 3.40185 10.0602 3.93873 0 1.07585 -1.23343 -0.617733
910 1 3.24896 9.60897 0.92876 0 0.453972 0.817798 -1.47835
740 1 3.59441 5.65525 5.27038 0 1.17115 -0.846317 0.986181
426 1 3.23213 9.70002 4.92996 0 -1.09408 -1.23909 -0.57275
97 1 4.36156 10.1537 0.460915 0 -0.755395 1.51047 -0.456365
431 1 4.18982 5.47665 2.99618 0 -1.10164 1.01215 0.90684
820 1 2.17924 5.66052 1.0673 0 1.26304 -0.474547 1.11352
725 1 1.50088 6.27896 0.544404 0 1.15874 0.585709 1.17246
23 1 4.851 5.67868 4.53009 0 -0.791967 1.43752 0.605574
616 1 5.11748 5.90144 2.64341 0 -1.16425 0.201562 -1.29007
496 1 1.21382 9.73323 2.87464 0 0.367404 1.12526 1.2881
446 1 4.41559 9.49154 1.25438 0 0.54298 1.24334 -1.10439
581 1 2.60879 10.3121 3.4009 0 -1.39009 -1.05892 0.0820272
911 1 1.6786 6.00978 2.2333 0 -0.0630845 1.74778 0.041141
569 1 0.34344 9.65171 2.4709 0 1.48486 0.86078 0.338601
525 1 0.948941 8.78076 1.58449 0 0.181601 -1.21484 1.24562
861 1 2.82352 6.13452 3.80204 0 1.50814 -0.17597 0.868871
739 1 4.39677 6.00846 2.01229 0 -1.73157 -0.216464 0.123295
601 1 3.50988 9.5573 2.97879 0 1.60785 0.681501 0.103743
945 1 0.529047 8.64082 2.55281 0 -1.30168 1.16801 0.0421577
356 1 2.68828 6.41259 5.00977 0 -0.910303 -1.26592 0.793211
917 1 3.87867 6.27531 3.4463 0 -0.664371 1.56756 0.402211
201 1 1.23484 7.61425 4.65539 0 -1.12372 -0.227708 -1.32129
915 1 3.03812 7.18564 4.23299 0 -0.594115 0.308216 1.6163
473 1 2.56123 6.28116 2.90403 0 0.287625 -0.278969 1.70289
674 1 1.12892 7.84128 2.42081 0 -1.60696 0.363523 -0.588169
930 1 0.376629 6.5103 0.461858 0 1.06345 0.762139 1.1613
334 1 4.64274 8.65413 1.67383 0 -1.06417 0.626739 -1.23901
381 1 4.7067 9.49351 4.78527 0 -0.0990423 -0.959582 1.45938
612 1 0.680634 5.66064 3.76705 0 -0.622871 -0.426868 1.57804
922 1 2.94394 5.89928 1.68392 0 1.25495 0.397956 -1.15201
510 1 1.9607 6.96575 4.25392 0 -0.432322 -1.00541 -1.36479
630 1 3.64127 6.41223 1.11844 0 1.6559 0.557902 0.0845303
858 1 3.16516 7.85246 2.53783 0 -1.67552 -0.434947 0.252684
951 1 4.59386 9.41469 3.32332 0 0.873961 -1.50837 0.146298
636 1 4.108 7.75868 0.835557 0 -0.310217 1.67267 0.407831
943 1 4.06465 5.52861 0.258982 0 0.617052 -1.56897 -0.466882
529 1 2.39911 7.93664 3.9725 0 -1.69851 -0.34298 -0.24048
607 1 4.86317 10.2646 2.70243 0 -1.23491 -0.373465 1.18149
893 1 3.89838 8.63404 2.81718 0 -1.4681 0.273969 -0.911059
848 1 1.28293 7.24741 0.692142 0 0.918226 0.951287 1.14556
483 1 1.69845 8.8332 2.40486 0 0.620296 1.58329 0.410893
352 1 1.55301 7.99497 1.26831 0 1.3201 0.992119 0.577451
80 1 3.00407 7.81132 1.36632 0 -1.49385 -0.580065 -0.701669
354 1 4.41766 9.48017 2.25764 0 0.805083 -1.54566 -0.152283
75 1 0.686552 6.27337 1.54934 0 -0.585054 -0.142037 1.64254
482 1 2.35121 6.92674 1.1083 0 1.65884 -0.195898 0.519883
912 1 3.77254 9.04569 3.98916 0 1.46569 -0.776091 0.556638
401 1 1.92868 7.07115 3.07749 0 -1.1499 -1.02392 -0.830496
49 1 2.51552 8.78201 1.54169 0 1.49182 -0.726979 0.553515
629 1 1.18694 8.88932 4.00033 0 1.10149 -1.27365 -0.47426
405 1 2.75645 6.9846 2.11604 0 -1.53665 -0.574064 0.607924
142 1 3.63786 6.37814 4.51701 0 -0.375244 0.465022 1.64419
666 1 2.49061 8.42623 2.96499 0 -0.365949 0.40875 1.66115
517 1 1.47475 6.26761 3.50986 0 -0.492428 -0.572099 -1.57817
736 1 3.3017 9.4489 1.93832 0 0.218087 1.58507 -0.707391
993 1 3.3551 8.15701 3.66423 0 0.250238 -1.38234 1.04255
87 1 4.62827 8.59019 4.01014 0 -0.157461 -1.49265 0.898659
765 1 1.52021 8.05005 3.28726 0 -0.738024 -0.495049 -1.50687
179 1 3.69923 8.4549 1.75788 0 -1.02743 -1.40903 -0.139334
32 1 5.01053 6.62691 3.26746 0 1.63919 -0.348008 -0.502327
734 1 5.03164 8.30537 4.91962 0 -1.3456 -0.301125 1.07661
973 1 1.96133 9.5597 3.52282 0 0.713925 -1.31487 -0.90655
486 1 5.27709 6.46816 1.63983 0 -0.603388 -0.332619 1.60801
952 1 2.82351 8.96567 3.68393 0 1.68174 0.420045 -0.236009
511 1 1.07441 6.47645 4.66453 0 -0.618572 1.39891 0.849015
248 1 1.33599 8.189 0.29316 0 -1.2571 0.546835 1.08677
450 1 3.74843 7.1745 1.75648 0 -1.72469 0.123327 0.265747
994 1 5.40519 10.0463 1.84142 0 0.5309 -1.56793 0.56582
111 1 0.387805 9.92606 0.22024 0 -0.971804 0.562825 1.34135
845 1 4.0818 7.44645 3.4813 0 -0.501416 0.132168 -1.67078
614 1 3.08498 7.03366 3.23785 0 -1.10546 0.373688 1.30335
493 1 1.80452 6.77988 5.30863 0 0.210894 1.44369 -0.965232
789 1 1.04549 6.78134 2.76884 0 -0.817678 1.4974 -0.386773
847 1 2.17233 7.91964 2.13819 0 -0.289774 0.690317 1.58111
940 1 4.58037 6.93647 4.19889 0 -0.505948 0.0165753 -1.67456
826 1 4.85746 7.91613 2.62201 0 -0.486552 1.04584 -1.31525
171 1 2.15788 9.91972 1.59978 0 -0.593297 -1.02652 -1.28634
327 1 3.59582 6.33797 2.44638 0 -0.580799 1.41304 0.852282
52 1 0.526739 7.76817 3.26582 0 -0.170122 -0.176371 1.73215
762 1 2.60105 9.33299 2.52408 0 1.29131 0.265444 -1.14999
868 1 3.97387 7.94377 4.76881 0 -0.455988 -1.60991 0.510553
12 1 0.0803482 6.57078 4.43752 0 -1.44263 0.100974 -0.984388
897 1 0.386935 8.10592 4.25868 0 -1.11116 1.18578 0.647804
622 1 4.7761 7.3193 1.55844 0 -1.31345 1.13918 -0.193705
192 1 5.44479 7.06627 0.588166 0 -1.13972 -1.12302 -0.707289
293 1 0.724994 7.26369 1.63493 0 -1.17122 1.0911 -0.705782
50 1 4.44722 10.1528 3.89778 0 1.31535 -1.02649 0.525893
878 1 0.408377 9.68038 1.36536 0 -0.788457 -0.300288 1.5325
621 1 1.74379 6.98644 1.94726 0 -1.14638 1.31423 -0.137932
187 1 2.19315 9.50992 4.55946 0 0.683845 -0.711901 -1.44428
519 1 0.921662 7.09935 3.90533 0 -0.825186 -1.32669 -0.786989
886 1 0.864742 9.8385 3.94255 0 1.31059 0.0865322 1.15553
866 1 2.62107 5.49648 4.78662 0 0.790785 -1.49832 0.435994
942 1 0.264105 8.8803 3.53591 0 1.17676 -0.77022 1.04039
385 1 5.39519 6.47775 4.85932 0 1.44928 0.583245 -0.787281
188 1 3.97128 10.3266 4.74985 0 -1.07086 -1.1767 -0.727341
240 1 5.40645 9.19959 2.29871 0 1.45808 -0.578018 0.774787
934 1 0.459335 5.94027 2.4927 0 0.746977 -0.661582 1.43692
984 1 0.401184 8.10129 0.541062 0 -1.55104 0.465546 0.661778
234 1 0.0335033 10.2979 4.78243 0 -0.799937 1.52756 0.295047
174 1 1.60354 5.72948 5.14817 0 0.732192 1.42636 0.699852
492 1 0.893972 9.05294 0.710909 0 -1.16545 0.385241 1.24648
271 1 2.33545 8.01134 0.713436 0 0.205492 0.318248 -1.70789
627 1 3.35249 8.40787 0.581361 0 -1.006 1.37693 0.390424
90 1 1.83836 8.50646 4.73588 0 -0.285299 -0.72552 1.56609
670 1 2.60953 8.96177 0.151359 0 -1.67569 0.244033 -0.439207
389 1 0.212116 6.65416 3.3529 0 -1.40104 -0.955594 -0.429343
700 1 5.45657 7.18453 2.40366 0 -0.385014 1.70128 -0.133425
184 1 5.15085 7.51925 3.61616 0 -0.538598 0.770444 -1.47537
134 1 0.11783 8.15194 1.50368 0 -1.55788 0.301296 0.736625
359 1 5.37118 8.73895 3.37215 0 0.976815 -1.2318 0.767402
220 1 4.86811 5.68033 0.810927 0 -0.745343 1.53178 -0.398128
726 1 3.74693 9.23707 0.0360633 0 1.06156 -1.09027 0.863023
204 1 0.249106 5.50764 0.0502787 0 -1.5206 0.660461 0.558549
846 1 2.88712 8.70346 4.58348 0 -0.634058 -1.54486 -0.521338
266 1 2.24562 10.0004 0.455812 0 0.43924 0.976061 -1.38375
884 1 2.46606 7.78012 5.13354 0 -0.866194 -0.646585 1.37551
696 1 2.58464 6.24872 0.21541 0 1.69996 -0.286822 -0.297074
92 1 4.56643 6.64071 0.647813 0 -1.35101 0.93946 -0.5938
116 1 1.09252 9.41719 4.93414 0 0.629979 -0.380127 -1.58715
438 1 4.5446 8.66757 0.500383 0 1.61213 0.554577 0.392288
38 1 4.58008 7.17894 5.13284 0 0.367009 -1.43346 -0.933223
732 1 1.62338 10.299 4.29183 0 1.70282 -0.119296 0.382841
638 1 3.84221 8.9193 5.05112 0 -0.287271 -1.54015 0.778335
567 1 3.57062 6.33163 0.157283 0 0.204411 -1.71023 -0.306144
138 1 3.41944 7.24217 5.1709 0 -0.925155 -0.427121 1.42199
580 1 0.838843 8.4405 5.19016 0 -1.64705 0.375834 0.454293
771 1 3.2298 7.26984 0.441346 0 0.544306 -1.61363 -0.400426
543 1 0.574102 5.69852 5.33258 0 1.13508 0.361914 1.28102
918 1 0.594253 7.43783 5.42364 0 -1.35408 1.09256 -0.182146
71 1 9.19545 5.65964 1.94455 0 -0.621295 0.768154 1.44372
717 1 7.32307 6.28062 2.11426 0 -0.635392 0.378973 -1.58526
231 1 5.66368 9.80799 5.05564 0 0.0923802 1.36328 -1.0924
877 1 9.99495 5.91993 3.79324 0 -1.06905 -1.36716 0.22001
812 1 9.3682 5.64702 4.85518 0 1.33511 1.03246 0.460338
35 1 8.20473 6.35456 4.04929 0 0.0929528 0.125867 -1.74239
563 1 7.70878 5.47119 0.770563 0 1.28272 0.0860179 -1.18644
299 1 9.71664 7.51 4.26852 0 0.154656 1.34936 -1.10259
237 1 5.47095 9.88257 3.45459 0 0.726217 -0.862082 -1.33784
364 1 10.2485 8.17204 5.07096 0 -1.62625 0.635108 0.111143
832 1 5.68668 6.33303 3.84299 0 -0.670099 0.591795 1.50371
85 1 10.2995 9.24473 4.64787 0 0.426565 1.28751 1.10488
394 1 5.52921 9.86083 0.651188 0 1.49592 0.31592 -0.850184
449 1 10.1173 9.194 0.688332 0 -1.45266 0.667389 0.710478
608 1 6.36611 5.84253 4.54567 0 1.40349 -0.228508 1.01902
976 1 5.95334 8.78538 4.3143 0 0.860295 -0.754652 1.32317
556 1 5.54975 8.11991 1.87681 0 -0.766412 0.918403 -1.27654
208 1 7.41211 5.89246 4.57153 0 1.21214 1.19094 0.415679
573 1 7.23832 9.92213 3.51885 0 0.840585 -1.49979 -0.323195
585 1 7.30496 9.89004 1.60397 0 0.234344 1.22101 -1.2307
162 1 7.42043 7.17789 1.8645 0 0.869859 1.51568 0.0803315
514 1 9.87781 10.0039 1.90047 0 -1.03269 -0.975208 1.02124
77 1 6.07418 6.10092 2.36429 0 -0.914734 1.35017 0.633001
324 1 5.93076 7.99925 0.80902 0 -1.40605 0.955156 -0.413658
501 1 6.55203 10.1511 0.679287 0 1.23275 1.19262 -0.344044
757 1 5.69528 7.43966 4.4699 0 -0.0743571 0.946317 -1.46947
468 1 9.33738 9.56454 0.475095 0 -0.729579 0.847514 -1.3453
416 1 9.7742 8.51718 4.25252 0 -0.0407873 1.59459 0.718349
697 1 8.95775 9.49669 2.19859 0 -1.66586 -0.290053 -0.448528
16 1 9.52455 8.89468 3.31284 0 1.50376 -0.870699 0.202461
62 1 10.0862 6.05315 1.12484 0 1.33598 -0.778557 0.81818
30 1 6.83345 7.66246 4.19289 0 0.75003 -1.4857 -0.539024
325 1 10.154 9.72544 3.75664 0 1.02633 -0.0998073 1.41319
272 1 9.58413 6.91602 3.39488 0 -1.71035 -0.325236 -0.171236
646 1 8.57928 7.31846 4.34994 0 1.26754 -1.02913 -0.628209
729 1 9.63751 9.87231 2.88509 0 0.119411 -0.736531 1.5823
360 1 7.94062 9.37944 2.24964 0 -1.12948 -0.0697315 -1.33409
675 1 8.10975 7.06351 3.33894 0 -0.483263 0.288215 -1.65644
20 1 8.27161 6.55251 2.41629 0 -0.266971 -1.72866 -0.0291698
68 1 6.27298 8.64408 2.55847 0 0.423171 -1.36453 -1.00964
149 1 9.30908 10.1066 4.82757 0 -1.42598 -0.625653 -0.79721
602 1 5.51469 9.00303 1.24874 0 0.483552 1.62439 -0.433496
656 1 7.00662 6.60895 1.17328 0 -0.151483 1.45242 0.963291
564 1 6.9385 8.75693 4.14596 0 0.183269 -0.769421 -1.56039
641 1 6.11416 9.95052 2.78814 0 1.23777 1.09697 -0.570073
905 1 7.85012 5.89707 3.13618 0 -1.5053 -0.817758 0.354605
623 1 7.53137 8.66239 0.06647 0 0.5451 0.539227 1.57242
669 1 9.04477 6.0395 3.43616 0 0.591809 -1.52448 -0.6214
388 1 8.34803 9.81995 3.02494 0 -1.35246 0.589468 -0.94009
59 1 9.94603 8.95946 2.36826 0 -0.935039 1.404 -0.463559
860 1 6.17067 7.05332 1.37348 0 -1.71891 0.224231 -0.235517
480 1 7.90834 7.69064 0.387642 0 -0.0066368 -1.74654 0.0997195
330 1 6.39566 6.79144 4.90027 0 0.057985 -0.216535 1.73498
256 1 7.20102 8.31935 2.19608 0 -1.15767 -0.690094 -1.11534
816 1 7.97095 7.81321 5.01217 0 0.615697 1.58504 -0.411037
604 1 6.13109 7.12262 3.21963 0 -0.817557 -1.50128 0.37168
665 1 7.89472 8.25749 3.8902 0 0.592534 -0.233781 1.62931
411 1 8.96608 7.16881 2.65263 0 -0.941705 1.07337 -1.01068
799 1 8.73339 8.41771 4.53954 0 1.36371 1.09534 0.030626
42 1 9.7092 5.56614 2.76881 0 1.06924 -1.26951 0.552707
647 1 8.7773 7.86708 3.4768 0 -1.74895 0.0394795 0.00224738
172 1 9.48435 8.1079 1.23888 0 -1.47471 -0.928196 0.15515
417 1 7.01505 9.66049 2.56096 0 -0.00120982 1.19749 -1.27531
406 1 7.59907 9.09598 3.19591 0 -0.378369 -1.11393 -1.29476
728 1 8.12616 10.2328 3.98905 0 1.18046 0.789147 -1.02184
711 1 9.0162 9.55045 4.10539 0 -0.298563 -0.44606 -1.66502
662 1 8.89726 7.29668 1.49289 0 1.1916 -1.27249 0.145831
161 1 9.87554 8.43823 0.110242 0 -0.215052 1.72964 -0.149996
313 1 9.08257 6.29776 1.04932 0 1.06774 -1.35111 0.307932
802 1 8.91658 8.63889 0.67447 0 0.745972 0.758609 -1.38868
67 1 8.09713 7.83257 1.43121 0 1.65522 0.349718 -0.445344
836 1 6.39368 8.14697 4.93265 0 0.678026 -1.60066 0.196356
498 1 8.2709 6.81614 0.810867 0 1.01332 -1.26449 0.659272
217 1 6.45773 7.61225 2.26712 0 0.493598 -1.49488 -0.762951
593 1 9.81598 7.9176 3.23341 0 -1.65681 -0.113314 -0.550031
269 1 8.12608 6.06453 1.48001 0 -0.880809 -1.4396 0.460565
892 1 6.41593 5.70549 1.50297 0 -0.122242 0.436891 1.68955
506 1 9.84491 6.62271 2.23227 0 -0.362614 -1.22036 1.19985
589 1 10.2258 7.16941 1.03793 0 -1.71881 -0.225388 -0.235145
767 1 6.59017 5.78295 3.47709 0 -1.42037 0.954642 0.362781
913 1 9.09557 8.09935 2.36946 0 -0.366907 1.67123 -0.364383
592 1 6.45412 8.45234 1.5294 0 -0.924684 0.503465 -1.3971
716 1 8.57903 8.70478 1.64284 0 -1.50591 0.528792 -0.716251
895 1 10.307 7.61502 2.33215 0 0.140041 0.4468 1.68557
484 1 6.98454 6.69065 3.83219 0 0.748835 0.195636 1.56888
65 1 7.9803 7.78347 2.80196 0 -0.851682 1.03325 -1.1258
707 1 7.96934 9.21235 4.14945 0 -0.512622 1.31181 -1.03767
777 1 6.02552 8.01938 3.60095 0 1.70838 0.187107 -0.326868
929 1 8.55769 8.84307 2.97445 0 0.0498015 0.896023 1.50169
661 1 9.38392 7.61002 0.356548 0 1.36413 0.391587 -1.02285
257 1 7.22344 6.90333 2.93801 0 -0.64956 -1.61213 0.198751
165 1 8.91492 6.82686 5.37159 0 0.199302 -1.68378 0.430775