ITEM: TIMESTEP
100000
ITEM: NUMBER OF ATOMS
1002
ITEM: BOX BOUNDS pp pp pp
0.0000000000000000e+00 1.0346399999999999e+01
0.0000000000000000e+00 1.0346399999999999e+01
0.0000000000000000e+00 1.0346399999999999e+01
ITEM: ATOMS id type x y z q mux muy muz
500 1 3.10213 2.12992 2.61579 0 -0.322074 -1.68736 0.330893
372 1 3.33455 3.50429 1.5401 0 0.610038 0.506295 1.55946
689 1 3.8795 3.64651 0.501091 0 1.37416 -0.322441 1.0335
629 1 2.16286 1.29271 3.87988 0 -1.08939 1.13526 -0.764727
227 1 1.6393 0.0331282 3.64038 0 -1.67714 -0.184536 0.462107
60 1 1.3979 0.310815 4.61831 0 -1.14092 -1.10395 0.734852
756 1 2.62898 0.456864 3.42501 0 -1.21517 0.537151 1.13808
808 1 0.822156 0.165279 3.05525 0 -1.3886 -0.514573 -0.931339
271 1 2.42777 0.496264 4.65216 0 -1.61929 0.546514 0.373674
429 1 4.14817 0.623253 4.09234 0 0.237372 -0.970813 -1.43582
960 1 2.1191 4.11784 1.52684 0 -1.28135 -1.18417 0.127586
526 1 5.08652 4.04872 2.78447 0 -0.573486 0.247984 -1.63402
816 1 4.99798 2.6839 2.95099 0 -0.89483 -0.74939 -1.30311
273 1 4.3182 3.45399 2.63334 0 -1.53418 -0.833998 -0.105612
533 1 4.91556 1.67065 3.06484 0 0.673532 -1.60132 -0.206263
213 1 3.13821 2.00315 4.37387 0 -0.588752 0.0445356 -1.64675
470 1 2.52717 4.82844 3.64171 0 0.512735 -1.23186 1.13138
432 1 3.09953 2.82794 4.89748 0 -0.243016 -1.10987 -1.33024
81 1 3.27693 0.793515 5.16919 0 -1.57506 -0.117982 0.752114
154 1 3.99078 1.8105 2.23547 0 -0.399296 -0.78081 1.5137
919 1 1.62595 2.06166 3.71628 0 -1.15126 0.150095 -1.30861
741 1 2.88029 4.8162 1.58095 0 -1.1494 -1.25363 0.409492
686 1 2.69695 0.762829 2.44314 0 -0.161903 -0.216201 1.72842
254 1 3.15428 3.10878 2.84046 0 -0.475464 -0.392009 -1.63727
529 1 2.58328 3.82056 3.86812 0 0.126755 -1.66716 -0.514708
725 1 1.51588 1.7647 2.74231 0 -1.36473 -0.780904 -0.766872
677 1 3.79166 3.86653 3.40933 0 1.03589 0.037311 1.40923
141 1 1.62487 0.815087 2.9671 0 -1.08638 -1.07984 -0.845058
162 1 2.9269 1.42496 3.26884 0 0.842273 -1.11152 1.05617
871 1 1.86106 4.09204 3.15114 0 0.313144 1.38335 1.02405
935 1 4.23207 1.40263 4.79661 0 0.519907 -1.6545 0.229612
292 1 4.19469 4.38548 2.09297 0 -1.2841 -0.0518429 1.18693
997 1 4.00541 1.57698 3.56437 0 1.25637 0.212843 1.1986
865 1 4.7146 3.4039 3.57299 0 1.45503 -0.584452 -0.775692
501 1 5.11989 1.26988 4.15326 0 0.706824 1.47233 0.626934
77 1 4.75017 2.19285 3.87812 0 0.169611 0.898475 -1.49143
641 1 5.40842 1.85889 0.547867 0 0.0600067 -0.534102 1.66479
873 1 0.895455 2.67495 3.45516 0 -1.40962 0.0896721 1.03214
157 1 4.52817 0.623181 1.4374 0 -0.0861729 0.343689 1.71314
39 1 3.8981 2.92815 3.94098 0 -0.834862 -0.968735 -1.19372
673 1 3.91271 2.79328 2.04475 0 -0.67981 -0.994645 -1.26844
687 1 4.57098 2.22729 1.55789 0 0.350744 -1.56024 0.709243
972 1 5.32698 4.07633 0.500461 0 -0.987794 -1.41491 -0.287569
480 1 4.20033 0.202583 5.39435 0 -1.5337 -0.797075 -0.269866
156 1 5.12827 1.43194 2.04606 0 -0.352735 -1.17668 1.24555
275 1 4.548 3.60491 1.42823 0 0.285653 -0.803187 1.52764
472 1 4.48318 0.8117 2.61659 0 -1.01392 -1.42112 -0.113114
492 1 4.37662 2.66199 0.593731 0 -1.36436 -1.08517 0.146011
957 1 2.07713 2.65681 4.4893 0 -0.472865 -1.6198 -0.46156
966 1 2.10567 3.06768 3.24326 0 -1.19907 0.624066 -1.11048
314 1 1.5208 5.03587 3.23661 0 -1.17364 0.753654 1.05592
297 1 1.55642 5.2219 1.36053 0 -0.58658 -1.17353 1.15722
263 1 5.05515 1.97982 4.97732 0 -1.04978 -0.664724 1.23146
267 1 5.37322 3.14842 1.97974 0 1.65122 0.208462 0.538914
791 1 1.89388 2.35733 1.00233 0 1.04936 0.8236 1.13178
787 1 2.49216 1.84936 1.87392 0 1.56239 0.749106 -0.241173
525 1 2.01324 0.599691 0.454921 0 1.44205 -0.952403 0.271713
494 1 1.25179 3.35594 2.73646 0 -1.07455 0.664142 -1.21023
40 1 2.15977 3.9115 4.94957 0 1.25175 -0.285979 1.18817
928 1 2.8547 2.4516 3.5543 0 -0.440056 1.60694 -0.533386
745 1 2.31818 3.59555 2.44064 0 -1.1943 1.17315 0.507715
121 1 1.72357 1.30613 1.64287 0 0.241698 1.45929 0.934057
98 1 1.66265 4.42581 4.24696 0 1.02183 -0.0686827 1.41829
343 1 3.23626 4.07905 2.30485 0 -1.03737 0.871378 1.10678
54 1 4.12455 2.49383 4.86521 0 -0.170205 -0.529728 -1.65856
806 1 3.46097 3.92922 4.64426 0 -1.67866 0.491607 -0.0286721
706 1 3.27595 1.02505 4.1563 0 0.516857 0.797164 1.46894
88 1 3.01868 4.89688 4.62462 0 0.958607 0.814381 1.21584
903 1 4.95443 3.02362 5.27465 0 0.200027 1.36797 -1.07194
231 1 3.75463 4.85381 4.03195 0 0.0939735 0.725295 1.58919
782 1 4.49924 3.64143 4.56234 0 -1.25671 -0.740299 -0.965937
132 1 1.29292 3.28691 5.17874 0 1.25715 -1.10228 0.514735
215 1 0.8064 3.95355 4.7332 0 -0.609314 -0.764267 1.45087
601 1 5.35406 2.91027 0.689196 0 -1.40803 -0.700706 0.766061
537 1 1.01536 1.04093 3.84277 0 0.967969 0.166832 -1.44762
758 1 0.876746 0.895625 1.07282 0 1.46443 -0.724049 0.625782
578 1 2.73902 0.827298 1.43166 0 -1.1918 -1.15618 0.550707
748 1 1.82537 3.44879 0.89915 0 0.644894 0.622792 -1.50221
776 1 4.04374 2.48679 3.03963 0 -0.84218 -1.13951 -1.02598
67 1 2.32228 4.75053 2.55454 0 -0.041816 1.44083 0.991295
859 1 2.79181 4.22624 0.671288 0 -1.49699 -0.244876 0.871464
543 1 2.02573 0.0721824 1.76341 0 -0.681343 -1.21074 1.06315
178 1 4.73431 4.67969 4.38828 0 -0.278425 -1.59877 0.653302
401 1 3.74954 5.30678 1.76352 0 0.88836 -1.45744 -0.383535
665 1 1.25221 5.45164 4.08219 0 -0.753489 0.000303557 1.57881
942 1 1.48431 1.55003 0.41755 0 -0.48281 -1.14462 1.23172
660 1 4.47986 1.45311 0.45979 0 -0.111534 -0.269693 -1.72488
798 1 3.42753 2.28758 1.11848 0 0.111053 -1.18329 -1.2837
12 1 2.53075 1.55803 0.83539 0 0.715396 -1.45301 0.661334
197 1 1.99456 2.91769 0.141772 0 0.601349 -1.54342 0.562706
818 1 2.31032 2.88049 1.6538 0 0.0758349 1.49068 0.912425
112 1 0.272841 3.38875 1.09714 0 -0.975195 1.3909 -0.418094
104 1 0.00643264 1.14448 3.93285 0 -0.663893 -1.14142 1.14752
669 1 1.1843 0.536241 2.0524 0 -1.09969 -0.114289 -1.35574
625 1 1.0391 4.69962 2.40893 0 1.24044 1.22278 -0.162842
340 1 1.10943 2.41734 4.60544 0 -1.59289 -0.325803 -0.645726
684 1 0.550103 1.65377 3.21241 0 -1.6704 -0.480743 0.197641
376 1 0.15004 0.120061 2.23417 0 -1.29627 1.16083 -0.18049
163 1 5.44278 4.85824 2.1616 0 -0.771091 1.47893 -0.527822
575 1 0.0178396 2.56628 0.444327 0 -0.174129 -1.20756 -1.25374
405 1 0.911888 4.10291 3.6651 0 0.969243 -0.130075 1.45053
124 1 1.25556 3.56034 1.8107 0 -1.26248 -0.435693 -1.12991
339 1 1.2633 2.48075 2.07528 0 1.04119 1.30829 0.514502
311 1 1.85485 1.66903 4.75792 0 -1.68555 0.44181 -0.155294
488 1 0.378379 3.82203 2.91135 0 0.64685 0.699904 1.46701
929 1 0.924803 1.85443 1.21107 0 0.0749909 0.196797 1.73668
896 1 0.206996 5.40017 0.489133 0 -0.385488 -0.0383069 -1.70597
207 1 0.700893 1.54248 2.21365 0 -0.925514 0.920408 1.16476
751 1 0.381488 2.61955 1.66122 0 1.61581 0.619251 0.257062
530 1 0.822454 1.2669 4.76912 0 -1.09032 -0.614713 -1.22218
723 1 0.209075 2.89427 2.68699 0 0.259248 1.52871 0.810092
569 1 0.0543304 4.14406 1.96658 0 -1.61678 0.254046 0.61798
545 1 0.667623 2.12387 5.46303 0 0.415829 -0.90496 1.43824
547 1 0.162317 2.21329 4.34784 0 -1.35931 0.408196 -1.02276
8 1 0.491834 4.94544 4.62285 0 1.36722 -0.93207 0.56777
988 1 1.42835 3.36961 4.19979 0 1.41726 0.447987 0.922535
733 1 0.0152984 3.19915 3.96517 0 0.947431 0.977309 1.09893
833 1 0.273753 1.53767 0.475818 0 0.445973 -0.996849 1.36668
338 1 3.14584 0.976857 0.322462 0 1.73282 -0.102235 0.217414
716 1 3.63587 0.519473 3.17502 0 -1.33896 -1.10608 -0.21021
846 1 5.35574 4.05649 3.83245 0 0.480951 1.60504 -0.502933
532 1 4.94168 5.09901 0.318305 0 -1.62864 -0.598059 -0.224216
681 1 5.30578 0.174 2.02368 0 -0.139327 -1.74377 0.0155996
614 1 3.77706 4.5839 0.906737 0 -1.69207 -0.443021 0.0321928
233 1 5.22387 0.493186 3.50449 0 -0.517261 1.65328 -0.243963
285 1 4.69394 4.70793 1.29491 0 -1.45187 -0.860341 0.460734
345 1 4.82945 4.79682 3.397 0 -1.1789 1.28479 0.141022
694 1 4.60081 5.44552 2.47107 0 -1.23982 1.21661 -0.207593
182 1 3.76149 4.90417 3.04752 0 0.708969 1.08177 1.17794
713 1 1.34512 4.8374 5.16508 0 0.392895 -1.57913 0.642166
454 1 0.863718 4.45926 1.36435 0 -1.72305 -0.295055 0.0666556
409 1 0.227154 5.27754 1.64946 0 -1.31828 0.654017 -0.945938
556 1 0.104492 4.78506 3.09261 0 0.72125 0.263586 -1.57185
119 1 3.58627 1.31915 1.06034 0 0.635052 -1.45476 0.735386
425 1 5.20125 0.783477 0.542548 0 -0.363578 1.62176 0.545997
656 1 4.00582 0.556982 0.629832 0 1.73251 -0.187031 0.154379
106 1 1.64241 4.43668 0.645234 0 -1.65982 0.156224 -0.530072
700 1 2.96996 3.57896 5.45695 0 -0.049937 -1.69319 0.437056
858 1 2.87852 3.17233 0.780193 0 1.13552 0.344003 1.28556
781 1 3.66288 0.789808 1.9511 0 -1.25264 -1.19248 -0.263213
24 1 0.7039 4.53283 0.332358 0 -1.41227 -0.977593 0.331975
1001 2 4.80618 5.13879 5.42599 -13.626 0 0 0
95 1 0.806792 3.53616 0.173115 0 -1.09815 -1.30477 0.389937
571 1 2.96314 5.14401 0.0585435 0 0.797853 -0.189862 1.54525
779 1 3.96883 5.1953 4.9767 0 1.26944 0.0385755 1.2031
172 1 0.111191 0.49293 4.68843 0 -0.294658 -1.2684 -1.16822
618 1 1.00469 2.4328 0.321192 0 1.08703 -0.720875 1.16581
600 1 0.224118 3.14536 5.10869 0 1.32112 -0.954348 0.63581
289 1 2.78963 0.0557762 0.0518857 0 1.06069 1.14309 -0.792895
893 1 5.70422 1.23045 2.93218 0 1.57274 -0.448045 -0.62141
268 1 5.57437 5.08025 1.14225 0 -0.944965 -1.28841 -0.712355
446 1 6.95296 4.57682 4.86997 0 -0.102953 1.17926 1.28807
1002 3 5.54022 5.20761 4.92041 13.626 0 0 0
696 1 6.62592 1.06917 2.15145 0 1.69117 -0.0784327 -0.44066
484 1 6.18774 0.104623 3.81223 0 -1.48909 -0.233471 -0.88798
415 1 5.95526 2.3523 4.67567 0 -1.55398 0.174705 -0.784238
35 1 5.92523 4.52982 3.09676 0 0.218323 -1.56498 -0.750705
804 1 5.91464 2.21818 2.34885 0 -0.0720056 -1.35974 1.09833
279 1 6.43426 3.08784 1.8239 0 0.911644 0.0889593 -1.49043
828 1 7.12041 0.715086 4.46553 0 -1.02564 -0.522773 1.31726
936 1 6.04733 0.3463 2.51641 0 -0.877283 0.522529 -1.42047
161 1 5.92429 2.2724 1.30445 0 -0.374696 0.480792 1.63977
1 1 5.6731 3.32229 4.47387 0 -0.751879 0.724754 -1.4035
699 1 10.3189 0.814136 2.8756 0 -1.55366 -0.328459 0.733931
387 1 6.38908 1.19863 3.71586 0 -0.436933 -0.0472518 1.6933
128 1 7.50768 1.37426 3.2439 0 0.383886 -1.4181 0.949748
430 1 5.96524 1.13979 1.07425 0 1.70166 -0.0729943 -0.399267
632 1 10.1885 4.19717 0.97149 0 -1.38651 1.06649 0.0243313
238 1 6.00338 4.27557 5.10036 0 0.757141 -1.57458 0.088599
888 1 5.65213 0.593193 4.79755 0 -1.42647 -0.994761 0.189798
41 1 8.65795 2.46638 3.57957 0 1.27859 0.471479 -1.09696
293 1 6.01962 3.21696 5.44336 0 0.115642 -1.46494 -0.949205
183 1 6.62326 0.305571 1.35056 0 -1.59072 -0.727967 0.00799061
234 1 6.9919 4.77602 3.77591 0 -0.60787 0.983245 1.31306
330 1 6.32414 3.95834 3.98572 0 0.951562 -1.01354 1.06192
155 1 7.02327 4.60751 2.78292 0 -0.701481 1.19073 1.0726
995 1 5.82474 2.20412 3.6482 0 0.896531 1.40029 -0.543887
464 1 6.3925 5.35893 5.23091 0 1.47612 0.117152 0.931534
420 1 5.76545 3.252 3.45228 0 -0.0614318 1.14487 -1.32133
574 1 8.3511 3.97436 1.77821 0 -0.0337054 -1.37866 1.07637
624 1 6.22564 3.99887 2.27203 0 -0.586797 0.0786138 -1.64617
244 1 7.28499 3.7792 2.32995 0 -1.20573 0.966553 0.819995
329 1 6.92742 2.09254 4.19735 0 0.514699 -1.0931 1.26516
241 1 8.85865 2.02512 5.31006 0 0.494799 0.123253 -1.67343
235 1 8.46851 0.545321 5.17498 0 -0.263907 -1.47393 -0.904591
61 1 9.17345 3.34164 2.63761 0 -0.841573 -1.48211 0.394344
701 1 8.37338 2.52628 2.55592 0 0.921779 -0.617287 -1.35266
315 1 9.98809 2.09953 2.37982 0 -0.680759 0.918589 -1.32407
992 1 9.31807 1.17766 5.16428 0 0.528623 -1.59468 -0.487805
129 1 8.97542 4.30892 3.5189 0 0.226338 -1.55908 0.760553
206 1 7.88554 2.50684 4.44748 0 1.23004 -1.17587 -0.405888
438 1 7.94165 4.26032 3.91952 0 -1.38021 0.850401 0.657459
413 1 7.46629 0.697095 1.70254 0 0.288435 -0.674313 -1.58824
637 1 9.07156 2.00631 1.51993 0 1.3778 -0.538987 -0.933574
63 1 9.30005 2.28549 0.582915 0 -0.113431 -0.844064 -1.5281
636 1 10.1875 1.86974 1.32438 0 1.34985 -0.817512 -0.754974
769 1 8.80998 1.62497 2.39061 0 -0.0263705 -0.38165 -1.70706
164 1 7.61096 2.46496 3.39502 0 1.66844 0.325959 0.412885
222 1 7.06708 2.2971 1.3988 0 -0.493888 -1.63159 -0.392911
218 1 9.58703 2.96504 3.42955 0 0.210197 1.28807 1.16495
809 1 9.00044 0.934804 4.26771 0 -1.72523 0.0382147 -0.287285
780 1 8.07028 0.914359 2.59847 0 -0.909942 -1.49412 0.00260947
926 1 8.4481 1.43658 3.57579 0 0.506317 0.815541 -1.46251
11 1 7.22385 3.54859 3.47788 0 -0.963696 0.296449 -1.42962
463 1 9.44864 4.65625 2.43752 0 0.0445022 1.26843 1.20395
200 1 8.85242 2.98288 1.75584 0 0.17049 -1.7075 0.340267
421 1 9.42386 3.89652 1.62853 0 -0.537582 -1.57976 -0.52514
226 1 6.60014 4.12189 0.572876 0 1.42424 -0.88896 -0.491626
304 1 7.10129 1.2608 1.06805 0 0.301667 -0.919464 -1.45739
732 1 7.8143 3.49403 4.60628 0 -1.55973 -0.750256 -0.25446
131 1 7.41453 2.01074 2.40328 0 -0.429842 -0.725018 1.53297
971 1 9.7676 3.96961 3.0334 0 -0.0826844 -0.279171 -1.725
513 1 8.67799 0.938787 1.49131 0 1.03992 1.25172 -0.64199
764 1 9.59658 1.68597 3.21637 0 -0.410941 1.39943 -0.965977
353 1 6.73509 3.0933 4.24657 0 0.734303 -1.33643 -0.857416
411 1 8.6836 4.13697 4.78758 0 -0.38807 -1.64467 0.45263
553 1 10.2989 4.14548 3.97888 0 -1.04718 0.995595 -0.986207
274 1 9.32599 0.18082 4.86172 0 -1.24073 -0.678881 -1.02962
879 1 9.43252 0.32247 2.37057 0 -1.66955 0.0870602 0.515205
749 1 9.56988 1.9171 4.15199 0 -1.19206 -1.16891 -0.522534
447 1 9.66678 1.20239 1.92042 0 1.61778 -0.647414 0.15502
634 1 6.623 2.07683 3.01358 0 1.40743 -0.200152 1.01955
692 1 9.77141 2.91666 1.34991 0 0.454633 -1.5233 -0.730259
406 1 7.75003 2.95493 1.74091 0 -1.71578 -0.201696 -0.275328
74 1 9.19234 2.86559 4.57742 0 1.74137 0.146301 -0.0814343
33 1 7.10127 0.500743 3.41936 0 -1.70282 -0.145069 -0.373845
786 1 6.54807 3.11915 2.80655 0 -0.0516175 -0.502978 -1.67474
18 1 8.07589 0.547588 4.18345 0 -1.13847 -1.13184 -0.695151
921 1 7.97697 1.70451 1.65784 0 -1.53479 -0.463575 0.699944
619 1 5.85307 3.9661 1.3565 0 -0.628057 0.0937146 -1.63008
712 1 8.45471 0.0956528 2.01018 0 -1.10931 -0.727616 -1.14035
820 1 7.6006 1.92152 0.363628 0 -0.971334 1.26985 -0.710214
870 1 7.27955 1.48541 5.02862 0 -1.05362 -1.38614 -0.170016
998 1 7.22325 3.73499 1.368 0 0.825128 1.31827 0.801083
418 1 8.48782 3.45516 3.55188 0 -1.66349 -0.0654409 0.537511
834 1 9.90656 2.32055 5.24571 0 1.44885 -0.970593 0.138497
875 1 8.23487 1.56251 4.67912 0 -0.301052 -1.63808 -0.535234
22 1 9.32606 0.576433 3.37902 0 -0.626999 1.4981 0.650372
497 1 6.3175 1.34863 4.68628 0 -1.5396 0.133032 0.819957
14 1 8.3618 4.25421 2.73219 0 0.533578 -1.54825 0.615319
176 1 7.92655 4.80769 5.32318 0 0.869881 1.44635 -0.460179
728 1 8.48899 5.0695 4.49408 0 1.24334 -1.17227 0.374571
477 1 9.38594 3.73722 0.590064 0 -1.42788 -0.908436 -0.443062
554 1 6.81794 5.08998 1.21482 0 -1.14949 -0.266682 -1.29149
452 1 6.86017 0.605974 5.38314 0 -1.37991 -0.868317 0.634241
584 1 6.53266 1.96012 0.506943 0 -1.6961 -0.242603 0.353268
174 1 7.29644 2.916 0.420508 0 -1.59968 0.536655 0.46198
899 1 7.76702 4.91354 0.91365 0 -1.14942 -0.622254 1.16277
28 1 8.4909 3.42774 0.905706 0 0.39658 -1.0587 1.33502
784 1 8.52841 1.40627 0.597823 0 -1.69565 0.396736 0.166637
221 1 8.37892 2.44061 0.940217 0 -0.776035 -0.989706 1.216
844 1 8.63778 4.39274 0.787332 0 -0.523041 -0.119512 1.6651
31 1 5.95224 4.92333 4.0874 0 -0.195387 -0.770117 -1.55857
502 1 10.2225 0.759741 1.27791 0 -0.282261 -0.482937 -1.65756
473 1 9.56189 5.30742 3.13966 0 0.00955483 -0.721964 1.59345
461 1 8.23334 5.21888 2.95962 0 -0.672553 -1.57172 -0.371168
359 1 9.62057 4.90574 1.4266 0 -1.16635 -0.924722 0.919198
272 1 7.85878 0.549383 0.746926 0 1.46196 -0.914103 -0.295776
317 1 6.6573 5.35075 2.2741 0 -1.44913 0.682191 0.703584
883 1 7.95955 0.0874917 3.15674 0 -1.2733 -1.188 -0.166692
793 1 10.1562 5.24812 3.94497 0 0.869928 -1.28863 0.801907
478 1 7.75436 5.39579 3.9819 0 1.10181 1.35837 -0.0353605
323 1 9.23872 0.0422274 0.308947 0 0.944322 0.611119 1.33985
604 1 8.60835 5.06802 1.65461 0 -1.57164 -0.527733 0.558431
597 1 6.02387 4.85184 0.220147 0 0.489965 -1.22382 1.15004
134 1 9.53225 3.96979 5.25988 0 -0.115437 -0.880359 1.50733
431 1 7.56163 4.74311 1.86816 0 -1.41479 0.715031 0.739934
996 1 6.91142 3.56523 5.1469 0 0.804977 0.652447 -1.40951
379 1 7.86418 2.17665 5.46147 0 0.575402 -0.930584 -1.36504
349 1 6.84917 5.41098 0.23761 0 0.128311 -1.47706 -0.928565
627 1 6.33277 3.07627 0.717238 0 -1.31475 -0.996746 -0.581653
465 1 5.87823 0.106261 0.180977 0 -1.51891 0.15197 -0.85453
763 1 10.2888 0.239802 0.453863 0 0.941066 -1.27312 -0.744277
146 1 9.49138 1.08991 0.625224 0 0.021779 0.666093 -1.61748
219 1 7.53876 3.93475 0.46954 0 1.12296 -1.28713 -0.377701
702 1 9.72224 4.84133 0.308349 0 -1.38056 1.04479 -0.250728
861 1 9.56664 4.64099 4.4719 0 -0.311226 -0.643252 1.5968
693 1 6.49664 0.961367 0.214217 0 0.321328 -1.13406 -1.29269
590 1 8.82719 5.3973 0.560111 0 1.12634 -0.309741 1.30224
114 1 3.20709 10.2825 4.20884 0 -1.20734 1.06093 0.69076
139 1 4.01569 10.263 2.31791 0 -0.0822613 -1.34612 -1.11427
82 1 1.0766 9.39045 3.58679 0 -0.337719 -0.971009 -1.41545
680 1 5.27012 9.94284 3.83597 0 -1.31695 1.12387 -0.250921
347 1 4.12993 9.481 4.71579 0 -1.65165 0.0634703 0.573087
512 1 4.841 10.3088 4.73009 0 -1.40292 0.673509 0.799126
108 1 2.42843 9.74485 3.49546 0 -1.07888 0.887404 1.05306
819 1 5.36856 9.46696 0.174353 0 -0.906696 -1.17175 -0.930214
835 1 5.17302 10.1652 0.893404 0 0.974422 0.701141 -1.27252
151 1 0.963904 10.0935 1.52053 0 -1.72071 0.116793 -0.293128
80 1 0.696094 9.55692 2.63228 0 -0.702393 -0.86907 -1.34602
984 1 1.86353 9.95015 2.67957 0 -1.09622 -0.613326 1.21759
486 1 1.2321 5.6855 2.40044 0 0.660205 1.44291 -0.736581
87 1 3.40064 9.96878 5.17346 0 -1.64578 -0.0663385 0.589406
631 1 1.86173 6.0016 4.85916 0 1.36156 -1.09698 -0.0565249
469 1 0.872317 9.13435 4.988 0 -1.74274 0.147152 -0.0401818
186 1 3.44297 9.5783 0.234946 0 -0.630305 -0.49694 -1.5544
671 1 2.81742 5.88202 1.24236 0 0.119034 -1.47687 0.930101
130 1 0.440284 10.1309 4.09091 0 1.52845 -0.808987 -0.264167
202 1 0.769358 8.97263 1.66849 0 -0.468294 -1.68225 -0.105517
837 1 0.0465504 9.95856 1.28908 0 -1.67878 -0.282147 -0.403099
36 1 4.26046 10.0431 3.97242 0 -1.61969 -0.564688 0.343692
595 1 3.23187 9.24746 4.17859 0 0.168821 0.826224 -1.53273
506 1 3.14173 10.2581 1.71063 0 -1.27262 -1.10747 -0.462982
885 1 1.08423 8.32232 2.41808 0 1.05262 0.0494057 1.39641
117 1 0.0241122 9.04251 4.38203 0 -1.14924 1.28827 0.282858
654 1 2.84938 9.41792 1.08647 0 0.94905 -1.45936 -0.17309
216 1 1.76263 9.24377 1.68941 0 -1.71045 -0.345218 0.124776
328 1 1.7635 9.98521 0.810132 0 0.577266 -0.229551 1.63538
229 1 1.80088 8.85921 0.381503 0 0.947578 -1.31724 0.653734
189 1 2.55242 9.83041 4.82862 0 -1.00907 -1.13125 -0.873191
332 1 1.38738 7.84427 3.34764 0 -1.5487 -0.656119 0.481073
768 1 3.00074 6.86837 3.45164 0 0.618517 1.25476 1.05044
918 1 1.73147 6.20851 1.26621 0 0.227059 -0.298626 1.7087
770 1 1.61936 9.02545 2.78258 0 1.20704 -1.18126 0.456141
720 1 3.04711 8.44112 1.65813 0 -1.45838 -0.966154 0.00814924
565 1 3.2642 9.9963 2.8421 0 -0.980032 -1.26361 -0.70938
821 1 3.19095 5.69253 3.28035 0 -1.62257 -0.334072 0.562199
29 1 5.12358 6.8083 3.00098 0 -0.60049 1.05506 -1.25963
667 1 3.68043 6.25418 1.62202 0 1.02544 -1.4129 0.112216
148 1 3.73479 7.29797 1.84119 0 0.67159 -0.981664 -1.28285
459 1 3.78498 6.52051 5.01398 0 1.73451 0.156746 -0.165294
615 1 4.29965 7.83905 0.518055 0 -1.72494 0.218328 -0.193199
620 1 5.0869 7.28764 0.585845 0 -0.115364 1.40312 -1.03843
199 1 2.53946 6.60987 2.09988 0 1.55236 -0.762485 0.263032
455 1 4.70864 5.9032 3.31854 0 0.716013 1.2233 -1.02531
319 1 4.58175 9.15403 2.60542 0 -0.416301 1.65271 -0.39453
25 1 4.53154 6.35053 2.25871 0 0.685706 1.57802 -0.316333
450 1 2.83253 5.67496 2.27379 0 1.33159 -0.944306 0.62894
592 1 3.89626 9.32358 3.41763 0 0.307697 -0.972525 -1.42124
788 1 4.6864 5.74984 1.32653 0 1.4868 0.921797 0.0108638
185 1 4.27539 8.3559 3.05682 0 -0.917456 -0.317005 -1.4554
760 1 3.74551 6.39876 2.8307 0 -0.620896 -1.15326 1.15969
895 1 3.99389 6.89802 3.709 0 0.974839 1.25892 0.72472
922 1 3.62519 9.20526 2.28665 0 -1.02858 -1.38256 -0.301566
109 1 4.35415 5.6359 4.19772 0 0.364125 1.01342 -1.37869
84 1 2.18588 8.32484 2.40072 0 1.01899 -1.22285 -0.725744
609 1 4.29502 7.38483 2.5941 0 -1.49719 -0.00744723 -0.904864
744 1 2.33984 7.86018 0.313422 0 -0.0894354 -0.68416 1.60758
201 1 1.03165 6.56258 3.05648 0 0.888838 -1.07452 1.0563
559 1 3.369 7.89363 2.74574 0 -1.67279 -0.483811 0.16767
980 1 1.94964 6.11955 2.80604 0 1.23207 0.633842 1.06802
736 1 2.41291 7.84258 4.13229 0 -0.340552 0.149311 1.70942
228 1 3.29907 7.68922 0.842317 0 0.264896 -1.70912 -0.262951
281 1 4.6047 7.02448 1.34534 0 0.504033 -0.916165 -1.4025
722 1 2.75391 8.66416 3.24814 0 -1.72243 0.305802 -0.011038
740 1 1.84278 8.45479 4.66403 0 -0.303982 0.690145 1.57851
246 1 2.01823 6.60618 3.71378 0 -0.119433 -0.591688 1.64196
210 1 5.26129 8.0964 2.7316 0 -1.36204 0.548972 -0.950719
15 1 2.52956 9.25658 2.1915 0 -1.39363 0.671376 -0.816972
815 1 4.67117 7.70624 3.73745 0 -0.89078 1.50282 0.0919211
588 1 3.44191 8.14789 3.74423 0 -0.399681 1.03023 -1.3562
847 1 2.39283 7.60902 1.70498 0 0.0663897 -1.59562 -0.714129
422 1 3.76205 5.71645 0.513161 0 1.58674 -0.151661 0.72087
93 1 4.8483 10.1764 2.84272 0 -0.931017 0.853164 1.21067
607 1 1.65883 7.02005 4.81405 0 1.26374 -0.982092 0.706297
611 1 4.55847 6.30684 0.491148 0 0.375721 0.77483 -1.52278
355 1 5.28219 6.95366 2.05039 0 1.5216 0.208889 -0.837562
947 1 4.2661 8.17912 2.07571 0 -0.807883 -0.453071 -1.48407
737 1 5.42138 6.40776 1.17513 0 0.440807 -0.389103 -1.64763
113 1 1.89714 8.68087 3.69404 0 -0.395127 -1.37854 1.00195
931 1 5.14446 6.83461 4.265 0 0.479084 1.61157 -0.483431
258 1 4.77943 9.61868 1.56976 0 0.191131 0.508043 -1.66306
560 1 2.58806 7.71021 5.17081 0 -0.705303 -0.448425 1.53684
956 1 2.61308 6.84935 0.930664 0 -0.817735 -1.40149 -0.653868
841 1 2.39138 7.54018 3.02683 0 -1.33632 -1.12401 0.106099
316 1 2.81176 6.76393 4.53919 0 1.23804 -1.14777 -0.458563
282 1 2.60861 6.12356 0.0970419 0 1.29942 -1.11141 -0.369708
981 1 1.70266 9.41088 4.4263 0 -1.65917 0.518821 -0.19591
866 1 2.30702 8.85349 5.44399 0 0.892994 -1.01942 1.10623
2 1 1.64492 7.29763 0.799927 0 -1.68011 -0.110824 0.474698
111 1 1.09544 7.70125 4.43789 0 1.64862 -0.266524 0.520979
193 1 0.975673 6.60495 1.8187 0 -1.35938 -0.699244 -0.850611
308 1 2.51172 5.76852 4.18831 0 1.74743 -0.0826802 -0.0068735
69 1 5.08304 9.01646 4.83945 0 -1.2993 0.956247 -0.676618
435 1 4.12844 8.41985 4.60343 0 -0.717711 0.426606 1.5373
630 1 3.65729 7.45364 4.57386 0 -0.831959 0.924366 -1.23036
691 1 3.41185 5.8658 4.41072 0 1.232 -0.0367111 1.24146
642 1 4.73074 8.87441 3.87229 0 -1.43772 -0.916964 -0.390561
456 1 1.60387 7.91667 5.43121 0 -1.04865 -1.10976 0.853904
596 1 0.776125 5.78363 5.10979 0 1.2047 0.329177 1.22504
664 1 5.09475 8.68828 1.81112 0 0.0570445 1.69657 0.422836
930 1 1.53428 6.45964 0.273137 0 0.494524 -1.23556 1.13545
296 1 1.73602 8.30018 1.20907 0 -0.51915 -0.909828 1.40111
398 1 1.6828 7.10289 2.39014 0 -0.91955 -1.02989 -1.07431
548 1 0.670891 7.3691 2.56497 0 0.0391774 -1.48323 0.92676
551 1 0.609673 6.17064 0.96047 0 -0.0232409 -1.499 -0.90159
612 1 3.89416 9.74501 1.08974 0 -1.17418 0.573717 -1.16299
608 1 4.58521 6.06534 5.05885 0 0.520725 -1.62445 -0.387827
49 1 0.601687 7.17585 0.812432 0 -0.334479 -1.63152 0.535399
746 1 3.14594 8.47315 4.84947 0 -1.26587 0.015287 -1.20737
549 1 4.61873 7.56551 5.12366 0 -1.36223 -0.0933375 -1.09362
34 1 1.11986 7.60671 1.67739 0 -1.30095 -0.137367 1.16149
950 1 0.753678 9.9459 0.469969 0 1.61943 0.495281 -0.438793
977 1 0.36899 8.17788 1.07065 0 -1.61434 -0.610348 -0.285994
300 1 0.0976901 6.06104 3.24215 0 -0.187249 -0.356243 1.70248
462 1 4.47916 8.868 0.24296 0 -0.407476 -1.46965 0.85703
5 1 0.553253 8.51738 3.36506 0 -1.55842 0.774664 -0.177827
370 1 0.948452 6.48853 4.1579 0 -1.29189 0.730114 0.926473
917 1 0.615382 7.32226 3.59621 0 -0.841053 1.15449 1.01004
392 1 0.189813 8.17382 4.96938 0 0.515718 1.6676 0.116368
327 1 0.0886821 8.21792 2.50282 0 -0.11507 -1.45432 -0.96546
94 1 0.0786947 6.51549 2.21689 0 0.203426 -1.12129 1.3273
747 1 0.0412359 7.34425 4.42083 0 0.40013 1.11874 1.28403
369 1 0.223339 9.08184 0.539783 0 -0.19862 1.69953 -0.364078
955 1 2.98738 8.59903 0.301627 0 -0.253573 -1.70794 -0.281127
70 1 5.3431 8.25919 0.503423 0 0.758579 0.218255 -1.56119
354 1 3.02552 5.54996 5.33753 0 -0.571529 1.39773 0.883229
920 1 1.79892 5.53172 0.359916 0 1.51088 0.182575 0.862724
577 1 3.814 8.58393 1.05835 0 -0.346241 0.162528 1.70707
576 1 3.66633 6.75446 0.764284 0 -1.0788 -1.37161 -0.123531
718 1 1.19982 7.99843 0.333325 0 0.07995 1.58894 0.727507
965 1 0.448927 6.81027 5.28653 0 0.468503 -0.225442 1.67035
951 1 0.062174 6.69759 0.0545039 0 -0.0174415 1.7428 -0.150849
939 1 10.2812 9.94052 3.21765 0 0.224178 -1.24785 -1.20541
707 1 6.47588 6.07382 1.56198 0 0.0344392 -0.613279 -1.63802
383 1 6.86362 10.0984 4.57752 0 -1.68956 0.311668 0.329613
906 1 6.38424 9.53446 3.34746 0 -1.14143 -0.95019 0.924491
277 1 6.03194 5.51145 3.06829 0 -1.36345 -1.08599 0.148425
382 1 8.74858 10.2043 3.98605 0 -1.40421 -0.834457 -0.626316
170 1 6.18799 9.82187 0.983353 0 -1.55972 -0.792242 0.00516202
71 1 8.59006 9.36768 2.39889 0 0.476352 1.03606 1.32667
989 1 9.18445 9.89214 3.08668 0 0.633674 1.05695 1.24165
386 1 7.58323 10.234 5.25658 0 -1.48802 -0.375754 -0.839641
766 1 8.96936 8.84393 3.24782 0 0.0238469 -0.857205 -1.52481
344 1 7.62795 9.23269 4.78672 0 -0.457967 -1.63426 -0.424089
505 1 7.20804 10.08 0.704385 0 -0.77938 -0.248807 1.54631
767 1 9.75608 9.69758 4.01922 0 1.30142 1.13373 0.285243
59 1 6.9712 10.315 2.4825 0 -1.63288 -0.0829977 0.622263
17 1 5.49666 9.19772 3.06702 0 -1.66477 -0.506887 0.178932
103 1 5.97751 9.24083 4.15813 0 -1.52666 0.659614 -0.542792
123 1 6.59305 5.77024 3.94087 0 -1.43396 0.873718 0.490694
16 1 5.51848 5.81621 2.02827 0 -0.913502 1.39969 -0.516519
762 1 6.59397 7.52658 2.56029 0 -0.610853 -0.243162 -1.62115
880 1 5.76767 8.17927 4.25113 0 1.27232 0.402349 1.13125
237 1 5.73811 7.34522 4.91389 0 -0.63992 0.251994 1.60854
101 1 5.71294 7.53322 3.3675 0 -0.837536 1.47901 0.414082
72 1 5.77146 9.90362 4.95058 0 -1.48713 0.29365 -0.87328
803 1 6.24347 6.54043 2.52198 0 0.772503 -1.56149 -0.159342
365 1 6.091 7.51156 0.244842 0 -0.724723 0.992164 1.24531
248 1 9.61178 9.64823 2.18383 0 0.678225 -0.27731 1.58856
214 1 6.12042 9.67385 2.17322 0 -0.959087 -1.27188 0.723107
242 1 6.62877 9.16475 5.13585 0 -0.918961 1.48849 0.0175869
481 1 7.31505 9.57584 3.19722 0 -1.36455 -0.948725 -0.546185
358 1 9.99738 9.06688 2.92072 0 -0.840341 -1.49386 0.35015
774 1 7.53549 9.86139 1.6855 0 -1.37523 -1.06018 0.212517
243 1 8.09042 8.94799 3.83838 0 0.13467 -0.269783 -1.72322
743 1 9.04526 9.01467 4.25898 0 0.296518 1.137 -1.29603
824 1 10.3192 9.85569 4.95639 0 -0.0885584 -0.339263 1.7139
508 1 6.44088 7.22526 1.44848 0 0.511577 -1.64736 -0.291365
907 1 9.57646 6.00587 0.249662 0 -0.482251 0.946253 1.39012
990 1 9.97707 6.21269 1.30006 0 0.260655 -0.57521 1.63144
511 1 6.83962 9.18082 1.35569 0 -0.0753153 -1.19719 -1.27336
385 1 8.45678 9.94326 1.04651 0 -0.62958 -1.43286 -0.781634
522 1 7.87955 7.73578 1.81578 0 -0.283246 0.849562 1.5028
457 1 10.0027 8.36742 3.71036 0 -0.637941 0.157283 1.62132
823 1 5.55771 5.86475 4.30107 0 -0.0275722 1.47771 -0.935949
735 1 6.63796 7.55988 4.33639 0 -0.704976 0.176043 1.59136
160 1 7.28184 6.69353 1.67407 0 -0.283858 -1.72606 -0.0230682
916 1 6.94037 8.95446 2.39311 0 -1.21341 -0.0533698 -1.25904
232 1 5.89035 6.42203 3.51471 0 -0.553147 1.50257 -0.704788
335 1 7.67537 8.79086 1.74721 0 1.45103 0.682177 -0.699674
945 1 6.27072 6.52186 0.632145 0 -0.284249 0.0159445 -1.72608
278 1 9.75872 8.58587 1.53096 0 -0.0375177 -1.09604 1.36297
122 1 8.7181 5.92658 2.27708 0 -1.50402 -0.457564 0.767435
305 1 8.42576 6.12456 4.66184 0 1.72887 -0.0364059 0.264717
337 1 9.52903 6.41164 3.00095 0 -0.0869011 -0.563257 1.65396
507 1 7.23565 5.64922 3.10931 0 -0.954553 0.209093 1.45104
6 1 9.48032 6.74196 2.02386 0 -0.075191 -0.705059 1.59926
483 1 6.69936 8.16358 1.69807 0 0.852264 -1.52266 -0.124665
485 1 8.53561 5.98963 3.5846 0 0.499847 -1.37244 -0.962787
38 1 8.33489 6.81986 1.57917 0 -1.70679 -0.375632 0.0786276
407 1 8.30883 6.98127 3.52643 0 -0.187508 -0.890402 1.49413
958 1 7.26378 5.61605 4.84205 0 0.0513436 0.136782 -1.74329
498 1 7.68639 5.68553 2.13612 0 -0.929616 -0.311316 1.44889
567 1 9.48057 9.22701 0.854351 0 -0.155998 -1.26798 1.19511
593 1 6.35147 8.29177 3.18003 0 0.448676 -1.38133 0.975203
908 1 8.55702 8.57588 1.47435 0 1.662 -0.527532 0.140983
30 1 5.98458 8.59841 2.32485 0 -0.332846 -1.40923 0.98168
734 1 7.15558 6.79009 3.09884 0 -1.38782 -0.0804396 1.06201
175 1 8.32451 7.5423 0.914003 0 -0.295195 0.0347047 1.72397
153 1 9.5838 7.30396 3.69366 0 -0.291718 0.75812 1.54937
587 1 8.91242 7.22299 2.72111 0 -0.857727 0.0996403 1.52144
703 1 8.00964 6.49775 2.64478 0 0.257171 0.621728 1.61484
368 1 9.93236 7.33169 2.77063 0 -0.455106 -0.558271 1.59424
152 1 9.64141 6.10056 3.88695 0 0.752405 -0.196355 1.56708
361 1 7.61131 6.65227 5.09929 0 0.478452 -1.07505 -1.29451
757 1 6.82903 8.67783 4.03132 0 -0.0914738 0.953593 1.46379
255 1 7.79312 7.55176 2.74661 0 -0.434762 -1.20747 1.18886
855 1 8.48405 9.13856 0.326595 0 0.148873 -1.7237 -0.259018
761 1 8.28856 7.97424 3.43026 0 -1.37944 -0.308589 -1.03069
552 1 7.80775 8.62395 2.80947 0 -1.12334 0.358559 -1.29227
85 1 7.22754 7.74883 3.52826 0 -1.37525 -1.00232 0.405517
509 1 9.38135 10.2104 1.35882 0 -0.5394 1.15832 1.19488
290 1 8.82271 7.07406 4.42723 0 0.538301 1.58626 0.504379
270 1 7.74901 9.97218 4.06324 0 -1.69432 -0.384263 0.205014
796 1 7.22111 8.22654 4.9326 0 -0.449328 0.313932 1.66131
437 1 7.40026 8.04142 0.867595 0 1.69829 0.201099 0.368482
753 1 7.64683 7.51311 4.37027 0 -0.538416 1.43504 0.84331
901 1 9.9065 5.70752 2.28674 0 -1.21209 -0.748168 1.01562
891 1 7.52882 6.5554 4.12602 0 0.624674 1.63321 -0.0528792
249 1 5.61159 7.83827 1.47334 0 0.252024 1.34433 -1.09071
724 1 7.98539 7.96072 5.3604 0 1.43622 0.110099 -0.992746
778 1 10.0789 7.46417 1.7366 0 0.3877 -1.33087 1.06718