ITEM: TIMESTEP
0
ITEM: NUMBER OF ATOMS
1002
ITEM: BOX BOUNDS pp pp pp
0.0000000000000000e+00 1.0346399999999999e+01
0.0000000000000000e+00 1.0346399999999999e+01
0.0000000000000000e+00 1.0346399999999999e+01
ITEM: ATOMS id type x y z q mux muy muz
432 1 4.4207 4.33252 3.66558 0 1.1459 -1.25218 0.423528
342 1 2.3898 2.16516 3.66053 0 0.254719 -0.559043 1.63798
123 1 3.44147 2.06194 3.37441 0 1.38706 -0.372844 0.99872
600 1 1.69966 2.90409 2.45642 0 -0.328399 -0.320689 1.68811
356 1 2.32224 1.89131 1.92923 0 -0.405394 -0.267557 1.68062
288 1 3.91711 1.36776 4.22168 0 0.315641 -1.15918 1.27164
807 1 2.49049 3.166 3.38137 0 0.0872916 -0.510658 1.67093
315 1 2.79974 0.0247216 2.93152 0 -1.69895 -0.334165 0.249605
876 1 2.15144 1.43938 1.01822 0 0.749597 -0.127048 1.57555
34 1 3.2532 1.58181 2.49901 0 -0.794787 1.4006 0.683402
908 1 3.1542 4.56377 2.30101 0 1.39714 -1.02381 0.245412
910 1 3.19102 2.07731 4.39004 0 -1.32693 -0.262776 1.10933
472 1 2.12699 0.678255 1.64242 0 0.251157 -0.865692 1.4993
270 1 2.90565 5.13235 4.54713 0 -0.526538 1.43827 0.845297
116 1 2.97725 2.60168 2.67423 0 -1.35619 0.161152 1.09325
562 1 4.03392 2.53949 4.25313 0 -1.01266 -0.730901 1.22503
477 1 1.32748 2.8596 3.555 0 -0.379898 -1.55244 0.711349
124 1 1.71786 1.1167 4.66003 0 0.134211 -1.58015 0.738586
61 1 1.31324 3.73967 3.13092 0 0.485598 -1.18951 1.1873
24 1 2.65539 4.56557 3.54285 0 0.870952 1.0004 1.14064
813 1 2.97605 0.689431 2.11383 0 1.39195 1.05198 0.127354
561 1 1.87835 3.76331 1.80495 0 0.561977 0.41694 1.60335
62 1 3.29486 1.00275 3.40554 0 1.1441 0.0776936 -1.32113
181 1 0.59094 3.57314 3.82664 0 0.762238 -0.0669779 1.57318
328 1 4.61123 2.97964 0.656895 0 0.240103 1.52739 0.818424
755 1 1.09818 1.59954 0.908074 0 0.835871 0.174174 1.52689
271 1 1.68121 2.75118 4.52185 0 1.48129 -0.481838 -0.796251
85 1 4.4311 2.9545 1.75371 0 0.89378 1.3213 0.718138
582 1 2.82047 4.11968 4.43567 0 1.74371 0.14089 0.00343621
676 1 4.89939 1.92121 4.34098 0 0.579479 0.688147 -1.50035
743 1 0.391603 3.16148 2.74351 0 0.550653 1.59339 -0.467213
648 1 4.54267 4.69017 1.94106 0 -1.32187 0.675726 -0.925451
690 1 0.823501 3.78266 2.08863 0 0.398739 1.70335 0.000568869
857 1 3.90836 3.29572 3.71929 0 0.26571 -1.33046 1.10438
780 1 1.64378 2.40722 1.54137 0 -0.788715 0.443867 1.4971
309 1 4.52228 2.38615 3.3268 0 0.532364 1.23187 1.12227
100 1 1.99314 3.82349 3.99462 0 0.854882 0.810609 1.29325
464 1 2.52768 1.13013 4.07451 0 0.851697 -1.35942 -0.697853
246 1 4.24894 0.773612 2.77765 0 1.12032 0.67738 1.16037
744 1 4.74183 3.66043 4.60661 0 1.47492 -0.275062 0.899641
775 1 5.23059 0.222165 3.35665 0 -0.374938 -1.54879 -0.721856
645 1 0.544851 5.00559 5.33786 0 1.22361 1.21237 -0.305517
821 1 3.75649 2.50602 0.673488 0 -0.350564 -0.221485 1.69954
211 1 4.99494 4.55539 0.64292 0 1.17725 1.14283 -0.606979
944 1 1.80327 2.47048 0.38691 0 0.191944 -0.753245 1.56722
383 1 0.54275 2.78478 1.72149 0 -0.782808 0.534695 1.47028
504 1 2.72509 2.99485 4.30459 0 0.979974 -0.717986 1.25879
409 1 1.57676 0.970022 3.52184 0 -0.685104 -1.49254 0.602793
285 1 0.784993 2.66332 0.711504 0 0.624674 0.525914 1.54713
719 1 1.50921 4.77317 3.44827 0 0.632058 -1.28266 -1.00781
588 1 3.23463 2.7602 5.0703 0 0.222681 -0.5946 1.63011
715 1 3.51911 0.85307 4.92816 0 -0.483131 1.4586 0.836349
145 1 1.00605 4.14205 4.58806 0 0.699299 -0.300961 1.57506
386 1 3.47343 3.7585 2.90519 0 0.508242 -1.67129 -0.0941646
399 1 3.685 3.63096 4.65858 0 1.31199 -0.527483 1.02997
729 1 2.68755 1.12409 5.44121 0 -1.64285 -0.115549 0.590007
827 1 4.71268 5.37592 3.75455 0 1.676 -0.0390152 0.499907
881 1 2.80534 3.43842 1.93709 0 -0.114793 1.71172 0.342398
46 1 0.76203 3.17872 4.87322 0 1.55188 -0.451986 0.669165
960 1 5.05339 4.05154 2.67604 0 0.789851 1.56076 -0.0238399
937 1 5.45705 4.47364 3.63511 0 1.08998 1.27272 -0.502528
2 1 4.34258 1.73329 1.35888 0 -1.48507 0.300669 0.874392
738 1 4.93848 3.23461 3.7114 0 0.721068 1.55003 0.371303
245 1 3.41184 3.26582 1.21154 0 -1.64187 0.174349 -0.57815
467 1 1.35249 1.27281 1.87036 0 0.430528 -0.669637 1.55777
608 1 3.44511 2.23584 1.63406 0 0.378698 0.948131 1.42058
682 1 2.30979 3.94207 2.80465 0 1.20512 0.0772414 1.26575
983 1 4.92304 0.183367 2.33583 0 0.0699151 -1.48005 -0.930039
470 1 4.04122 1.74727 5.13958 0 0.812352 0.939255 1.23219
359 1 2.87082 3.69735 5.36533 0 1.66707 0.504265 -0.164325
84 1 2.19574 4.85603 1.64723 0 1.71541 0.334454 -0.0768042
739 1 1.37493 4.60281 2.39847 0 -0.528669 -0.434563 -1.60999
920 1 4.3261 2.10986 2.32925 0 -0.668429 0.590399 1.505
418 1 0.540978 4.34723 3.05077 0 0.66539 -0.653044 1.48027
805 1 3.89619 1.7088 0.113102 0 0.976714 0.0837066 1.44894
785 1 2.34961 1.09894 2.83313 0 -0.723528 -0.607913 1.47219
945 1 1.56894 1.77351 2.67354 0 0.752256 -0.00629662 1.57939
721 1 3.03472 4.26193 1.24251 0 1.22675 0.957404 -0.799295
308 1 0.985903 4.54216 1.45126 0 0.0389041 1.39447 -1.05562
14 1 1.43289 1.80601 3.90759 0 0.155234 -1.61605 -0.651686
357 1 3.9456 3.92488 2.01949 0 -0.887244 -0.54029 -1.40758
243 1 2.29942 3.46613 0.957728 0 -1.65192 0.413509 0.400715
393 1 0.55974 1.9495 2.60831 0 1.00337 -1.41724 0.21232
430 1 4.08196 5.12795 1.19906 0 -0.258305 -1.06147 -1.36637
574 1 0.472022 1.20768 3.84021 0 -1.34694 -0.576353 -0.956024
989 1 4.96742 1.147 2.06266 0 1.32505 0.348128 1.08786
87 1 3.54652 4.83396 3.70661 0 1.29693 -0.265858 1.14355
115 1 3.06244 5.30563 1.56291 0 -0.0935986 1.6931 0.430157
92 1 5.15153 5.04469 2.84419 0 0.8878 1.2829 -0.791444
313 1 4.07826 4.87981 2.78465 0 -0.0871829 -1.70898 0.363579
907 1 2.61807 1.93244 0.162801 0 0.638193 0.378177 1.58433
733 1 4.77408 1.00857 4.87505 0 0.191583 1.47641 -0.91864
480 1 4.44894 0.92591 0.622381 0 -0.0363344 0.393697 1.70414
458 1 5.12125 1.97641 5.35699 0 1.48437 0.792576 -0.478397
447 1 5.1112 0.993265 3.94192 0 -0.7577 -0.819047 -1.34739
188 1 0.705796 0.863285 4.97469 0 0.708341 1.5726 -0.292557
58 1 4.18545 4.19121 1.03807 0 0.203142 -0.29574 -1.71221
420 1 5.11386 3.73557 1.28309 0 -0.379489 1.45827 -0.888732
391 1 1.29157 3.50973 1.10432 0 0.993788 1.11032 0.916503
499 1 1.2013 5.3627 0.828017 0 0.117918 1.25184 1.2163
494 1 1.07648 0.0913258 3.64759 0 -0.620388 -0.78588 1.43454
172 1 3.17054 0.0391669 4.51594 0 0.776171 1.56753 -0.0283331
203 1 4.27506 0.4227 4.08765 0 0.212159 -1.61028 -0.649912
431 1 0.268996 4.97457 2.1786 0 0.522719 0.496766 1.59386
746 1 0.799961 0.858221 2.76953 0 0.49191 -1.0856 1.28059
500 1 0.75117 0.249549 0.28365 0 -1.07541 1.34034 -0.327706
905 1 1.90015 3.74481 5.23959 0 1.66202 -0.473802 0.271309
917 1 3.91399 0.826341 1.74264 0 1.50975 -0.504528 0.725612
512 1 1.62884 4.4809 0.493389 0 -0.0549572 1.68934 -0.45112
287 1 3.00476 0.486432 1.10029 0 0.150918 -1.73425 -0.173247
497 1 1.80652 0.232471 2.70597 0 -0.801821 -1.27031 -0.896553
65 1 2.61982 2.396 1.1043 0 -1.10786 -0.423452 1.28597
254 1 3.37076 1.41943 0.944948 0 -0.897642 -0.814289 1.26158
205 1 4.12442 4.58286 4.81958 0 1.50114 -0.84385 0.30807
602 1 1.03874 1.94133 4.77162 0 1.26278 1.03834 -0.622603
439 1 5.10841 4.63243 4.637 0 1.51354 -0.448303 0.754063
801 1 2.6188 4.4543 0.352053 0 -1.65201 -0.182594 -0.545833
127 1 5.38474 2.9148 4.67712 0 1.70339 -0.346655 0.196742
778 1 0.190804 4.67645 3.98596 0 -0.20889 -1.42289 0.996072
128 1 0.621904 0.330709 1.86411 0 -0.713679 1.53753 -0.432505
949 1 0.116444 3.44051 0.902033 0 1.55316 0.336555 -0.731313
77 1 0.58088 2.34405 3.93972 0 -0.416364 -1.0614 1.32683
671 1 4.44457 3.26662 2.78428 0 0.675561 0.967919 1.29118
929 1 5.40752 1.47792 0.865405 0 -1.0765 -0.54126 1.2683
482 1 0.427012 1.2108 0.166388 0 -0.956485 1.35341 0.560193
152 1 0.0842424 1.62278 1.13104 0 -0.063213 -1.54121 0.82528
601 1 0.0255426 0.625924 0.991442 0 -1.70641 -0.265591 0.279311
627 1 5.06277 1.49855 3.01794 0 -1.03917 1.40654 -0.0466425
251 1 5.25156 2.64478 2.63667 0 -0.497759 1.08704 -1.27709
229 1 0.0967785 1.15567 2.05527 0 0.554282 1.28865 1.04525
990 1 5.40786 2.36641 0.210089 0 0.0483322 -1.07444 1.37973
549 1 2.15871 0.100045 3.83726 0 -1.20293 -1.17955 -0.471196
75 1 2.41941 5.39054 0.772214 0 -0.156133 0.91162 -1.48491
94 1 2.03797 5.219 2.68723 0 -0.978161 -0.942425 -1.10247
641 1 2.2503 0.232207 5.00413 0 0.38772 -1.70573 0.0236557
517 1 1.17991 5.28707 4.50701 0 -0.0576363 -0.931215 -1.47984
534 1 3.05168 5.39337 2.81325 0 -1.15328 -1.30542 0.16197
492 1 2.51802 0.666871 0.132239 0 -1.20819 1.25605 -0.151677
455 1 2.30328 1.92749 4.7627 0 -1.12727 -1.29496 0.335749
737 1 0.150109 4.74136 0.51211 0 -0.897617 -0.986078 1.1324
933 1 5.43917 0.517346 1.23005 0 -1.66071 -0.216474 0.505539
23 1 3.50923 3.91585 0.281373 0 -1.05412 0.510507 -1.29947
108 1 0.323847 1.75206 5.43604 0 1.56975 0.709422 0.304948
300 1 4.69062 0.122529 5.10172 0 0.431399 1.11911 -1.27353
901 1 2.9285 2.91704 0.211016 0 -1.33164 0.910366 0.677023
484 1 4.43354 2.82107 5.07278 0 0.59404 -1.64545 -0.00428074
290 1 2.22335 2.77818 5.41681 0 0.513659 -0.00527028 1.67228
740 1 2.05675 3.63639 0.0166652 0 -0.732582 -0.295403 1.56092
60 1 3.55503 0.471062 0.143763 0 -1.26988 0.919707 0.775849
355 1 5.27445 3.64378 0.274726 0 1.23731 -0.385904 -1.17496
961 1 3.12575 5.33955 0.0504575 0 0.26191 -1.71445 -0.229035
689 1 3.5493 5.29739 5.40418 0 1.17331 -1.28918 0.147563
230 1 10.076 3.65218 4.50498 0 -1.12493 1.32888 -0.170325
141 1 9.86014 2.73142 1.4147 0 0.1384 1.72235 0.273404
523 1 10.1153 0.712154 5.12978 0 0.797151 -1.43363 0.607996
837 1 10.0258 2.48947 3.03032 0 1.57152 0.760892 0.108528
35 1 10.3084 4.38008 1.41196 0 0.649927 -0.467339 1.5555
174 1 9.94281 2.01745 2.16186 0 -0.858432 1.37187 0.664432
599 1 10.1669 4.48652 4.92168 0 0.167787 0.519644 1.66199
568 1 10.1557 1.51945 4.60644 0 1.17829 -0.650339 1.11763
392 1 9.34111 3.70051 1.81931 0 0.295399 -0.728741 1.56271
992 1 5.47858 2.77083 1.26463 0 -0.511913 1.61437 -0.438353
454 1 6.07081 1.33925 3.62955 0 -0.106226 1.05079 1.39462
249 1 5.69465 3.43804 2.25654 0 0.466273 1.67823 -0.162889
69 1 6.68877 2.87908 5.34708 0 -1.72136 0.254401 -0.180548
694 1 6.4129 3.07315 4.35384 0 0.514718 1.48405 -0.770096
38 1 8.49101 1.61037 4.65189 0 -1.09311 -0.973887 0.957628
760 1 6.00227 5.27898 3.18637 0 1.17056 -0.128263 1.29373
314 1 6.20604 2.74112 2.7952 0 0.0394181 1.71737 -0.330868
976 1 9.79891 2.35469 4.0997 0 -0.0781739 -1.74675 0.0561974
256 1 9.34233 0.631588 4.44578 0 0.995162 -1.43875 0.00798712
114 1 8.63932 2.59409 1.27549 0 -1.64722 0.329298 0.488504
823 1 5.96975 4.51421 2.59005 0 0.24047 1.0407 1.38547
531 1 5.87522 2.08601 4.70228 0 0.825969 0.0268607 -1.5419
909 1 8.90359 1.72217 1.75067 0 -0.34269 1.48306 -0.862264
56 1 9.46768 4.62771 3.99543 0 -0.687022 1.26905 0.988896
578 1 8.54253 0.730456 3.76123 0 1.44135 -0.302315 0.944207
866 1 9.00978 3.72386 2.89572 0 -0.437466 0.105544 1.69053
632 1 9.93822 4.74658 3.03715 0 0.575754 -0.741521 1.47616
16 1 10.1435 1.52843 3.14429 0 -0.858153 1.0603 -1.09533
662 1 10.0802 3.85712 2.42828 0 0.608576 0.145228 1.63369
526 1 10.0349 3.75042 3.44981 0 -0.263889 -0.709155 1.5773
566 1 7.08835 3.28029 3.65113 0 1.27675 -0.0448451 -1.19512
410 1 7.20147 2.84437 1.10527 0 1.16522 1.20786 -0.493717
321 1 7.71986 3.41727 2.94538 0 1.02862 0.828604 -1.14707
263 1 5.57807 4.57595 1.54684 0 -1.10842 0.866073 1.04006
803 1 7.88884 2.29191 0.444973 0 1.37894 -0.858298 -0.649806
926 1 7.7001 3.89387 4.20031 0 1.66604 -0.532323 -0.0364401
394 1 7.55569 2.49798 2.37743 0 1.29879 0.577626 1.01975
341 1 8.47401 4.31781 3.73629 0 1.37997 0.856367 -0.650179
916 1 8.35269 2.59599 3.00997 0 0.377026 -0.505821 1.63169
892 1 8.64388 2.46219 4.09419 0 -0.866405 -1.092 1.05701
825 1 5.75158 0.72053 2.66133 0 -1.13098 0.615021 1.1845
858 1 9.40302 1.0667 2.35589 0 -0.322316 1.46601 -0.898519
169 1 6.51236 3.09361 1.88182 0 0.121176 -1.70107 -0.389988
538 1 7.01424 2.06107 1.71405 0 0.80159 0.982301 1.20538
826 1 9.51177 4.85522 2.12961 0 0.128974 -0.061723 1.74355
895 1 8.03271 3.32135 0.950979 0 1.16146 1.17093 -0.583385
294 1 8.55077 4.20353 1.0456 0 1.43826 0.995135 -0.0388253
27 1 8.95248 4.93374 3.13148 0 0.705073 1.58563 0.221453
295 1 7.51882 2.92684 4.68787 0 -1.46072 0.878925 0.392661
533 1 8.43434 3.30657 2.21275 0 1.40683 -0.578508 -0.864037
864 1 9.32457 2.81577 0.0779219 0 1.14067 -1.0261 0.840467
298 1 7.15996 1.44534 0.778875 0 -0.592436 1.13665 1.19057
511 1 7.1668 3.96433 0.974743 0 -1.69467 0.29835 -0.31543
111 1 7.5535 2.34967 3.93271 0 0.517772 -0.560642 1.57416
303 1 5.55003 2.3653 3.69507 0 0.409839 1.31621 -1.07704
946 1 5.69514 1.87892 1.7246 0 -0.771539 1.43326 0.641001
231 1 9.99427 2.7736 5.00832 0 0.0136402 0.512787 -1.6725
726 1 7.89856 4.2472 0.221013 0 -0.567617 0.887864 1.39639
657 1 6.75453 3.53406 2.64493 0 0.533972 0.403774 -1.61624
849 1 7.85875 1.60816 2.34591 0 0.181713 -1.47129 -0.928816
228 1 9.16576 1.88554 3.00724 0 -0.658384 -0.231321 1.60419
170 1 7.93438 5.28951 3.19272 0 0.826898 -1.197 0.971507
768 1 5.8139 4.03023 4.50232 0 1.48776 0.718527 -0.575055
519 1 6.38001 1.84226 2.53385 0 0.438957 1.69328 -0.0228875
453 1 5.99773 3.44005 3.51284 0 0.947247 1.3348 0.617612
265 1 9.21876 1.47087 3.89661 0 0.0655945 -1.20777 1.26387
438 1 9.32005 2.91884 3.41404 0 -0.0321796 -1.40434 1.04268
948 1 6.19895 4.9179 4.15519 0 1.06337 -0.00191664 1.38912
618 1 9.11346 2.69258 2.39831 0 -0.123482 -0.68316 1.60575
767 1 8.11293 4.78667 4.5491 0 1.17573 -1.05939 0.745483
286 1 6.87603 4.07425 4.67936 0 0.748016 1.4054 0.725067
886 1 9.42637 1.88962 0.896971 0 0.870239 1.4489 0.45142
184 1 6.54842 2.1813 3.87361 0 1.55414 0.43879 -0.672694
683 1 7.23971 4.80039 4.07371 0 1.6426 -0.334414 0.500445
13 1 7.40115 1.97372 4.99661 0 0.609436 1.05543 1.25501
820 1 8.95888 4.28165 4.77577 0 1.00632 -1.3909 0.336323
787 1 6.62757 4.14016 3.5044 0 1.65433 -0.334588 0.460031
651 1 6.43475 3.07408 0.52576 0 0.663763 1.04147 1.23901
713 1 6.43896 1.27581 1.39821 0 -1.15407 0.98063 0.875714
277 1 8.97297 2.66122 5.111 0 -0.893006 -1.16193 0.955434
274 1 8.23229 1.68553 3.41006 0 -0.699692 -1.524 -0.498243
677 1 9.8879 5.40995 1.37482 0 -0.252624 -1.07735 1.35495
429 1 9.4031 0.552337 3.23398 0 1.09389 -0.19492 -1.35123
435 1 8.66125 5.22578 1.03415 0 -0.64934 1.13172 1.16532
20 1 7.82252 4.66089 1.62337 0 -0.912914 -0.119502 -1.48752
48 1 7.53582 1.38763 4.10649 0 -0.626685 -1.09559 1.21134
679 1 9.30205 3.5038 5.28594 0 0.209012 -1.45822 0.943564
913 1 9.04984 3.39946 4.23773 0 0.138192 -1.74224 0.0768247
260 1 6.64072 4.50786 1.70297 0 -0.547134 -1.42963 -0.84687
963 1 9.34139 1.56586 5.24166 0 0.972018 -0.723922 -1.26155
516 1 6.1537 3.96227 1.00739 0 -1.63949 0.520861 -0.318096
64 1 8.26467 4.37611 2.63035 0 1.60606 -0.121687 -0.682765
546 1 6.88231 5.42662 1.76992 0 -0.833682 -1.53796 -0.00683069
656 1 7.47572 3.61164 1.9365 0 0.626249 0.370759 -1.59083
612 1 8.4013 1.5903 0.879899 0 0.798251 -1.41487 -0.649097
613 1 7.22448 4.40961 2.7056 0 1.34663 0.258325 -1.0864
33 1 5.72237 5.39857 2.16741 0 0.908423 1.37687 -0.582578
236 1 9.47198 4.83204 0.55052 0 -1.43676 0.797734 0.599792
153 1 5.97162 1.46868 0.0446474 0 1.38745 0.580533 0.893515
335 1 7.31994 5.11178 5.02072 0 1.61931 0.545824 -0.37458
419 1 6.47425 0.689098 0.461776 0 -0.152049 1.20727 1.25689
252 1 9.86727 0.36501 0.184428 0 0.766263 -1.40267 -0.711167
680 1 10.1906 0.0690481 4.12506 0 1.17992 -1.13887 -0.609216
282 1 5.80988 1.0754 4.92328 0 -0.250792 -1.71253 0.254456
95 1 5.78745 0.0937544 5.06075 0 0.452615 -1.22546 1.16352
902 1 7.67269 0.21947 3.3734 0 -0.238881 1.03236 1.39197
773 1 7.26877 0.0362361 2.4747 0 -1.3444 0.439292 1.02957
31 1 7.28574 1.40582 3.09615 0 0.0904471 1.73968 0.160415
535 1 8.8548 0.184078 2.47489 0 1.74664 0.0760617 0.0621744
629 1 9.05681 5.40003 4.44004 0 -1.44293 0.918246 0.367652
1000 1 7.39005 0.998115 1.61681 0 -1.69739 -0.0684583 0.417834
387 1 8.03359 0.674895 2.52602 0 0.0929716 -1.66726 -0.521522
384 1 6.68862 0.871209 2.38763 0 -0.46578 0.323513 1.65493
660 1 6.8414 0.183212 4.15174 0 0.0106205 -1.68124 0.483451
345 1 6.37819 0.2117 3.19291 0 -0.22214 0.733791 1.57245
644 1 8.46555 5.36861 2.26685 0 -1.51844 0.67972 -0.541028
986 1 6.36399 0.262494 1.37723 0 -1.41579 0.565431 0.858034
686 1 9.45297 5.14556 5.29724 0 -1.65198 0.54365 0.189256
635 1 8.44214 0.741197 1.63944 0 -0.385381 1.32119 1.07997
59 1 8.05213 0.680205 0.604221 0 -0.945302 -0.0719662 1.47025
509 1 10.33 0.0558532 3.04573 0 -0.212723 -1.68474 -0.420488
157 1 9.47371 0.767442 1.38919 0 -1.51369 0.772223 0.415725
234 1 9.09138 0.998348 0.433997 0 1.01206 0.190052 1.41422
829 1 6.81084 1.11358 4.58681 0 -1.53595 -0.198844 0.81346
642 1 6.00219 4.79083 0.499791 0 1.33492 0.254594 -1.10162
132 1 6.18595 4.60386 5.20255 0 0.0492738 -0.042565 1.74819
42 1 9.59213 3.85617 0.847072 0 0.851001 0.330151 1.49238
106 1 7.83423 5.22275 0.269274 0 -0.206495 1.22823 -1.2285
625 1 6.90059 5.00497 0.795931 0 0.643784 1.57917 -0.390094
786 1 6.35232 2.12017 0.728372 0 -0.0596879 0.809606 1.54964
490 1 8.23232 3.55281 5.04314 0 1.1458 -1.28246 0.320685
888 1 7.27333 0.160598 5.06881 0 -1.41171 0.117684 1.02646
10 1 8.05575 0.868121 5.10203 0 -1.7131 -0.348437 -0.0653605
918 1 3.07603 9.62589 3.82636 0 -0.995845 1.30078 0.613726
747 1 3.73217 10.2944 3.32325 0 -1.4602 -0.730437 -0.62824
329 1 4.09939 9.92113 0.186476 0 0.647055 1.53056 0.546905
506 1 3.43613 10.2299 2.19811 0 -1.68097 -0.476026 0.0902225
475 1 2.49099 9.96704 1.7285 0 -0.907596 0.696191 -1.32363
102 1 5.15887 9.75457 1.69775 0 -0.803321 -0.379201 1.50708
848 1 4.01798 5.74357 2.22693 0 -0.0354384 -1.74535 0.113568
247 1 4.21707 10.2306 1.1015 0 -1.6716 -0.303009 0.417529
302 1 1.2193 6.22325 2.77096 0 0.457372 1.46262 -0.843769
55 1 3.92296 5.80694 4.36226 0 1.31079 -1.11699 0.307489
36 1 0.439675 9.94589 1.06622 0 -0.0151155 1.58455 -0.741187
900 1 5.15479 9.5273 0.62533 0 -0.867949 0.186731 1.50738
43 1 1.50973 10.2726 1.70273 0 -1.34198 -0.531201 -0.988594
369 1 4.91495 6.10684 2.75767 0 0.846805 -0.03984 1.53027
40 1 4.08524 5.88556 3.20242 0 0.271309 -1.72354 0.127283
808 1 4.15648 6.75808 3.91289 0 -1.59892 -0.639272 -0.308542
244 1 4.00683 9.8575 4.44963 0 0.112883 -1.68874 -0.442495
73 1 1.26863 10.2681 4.84702 0 -1.41845 0.836746 -0.590124
873 1 3.90819 9.27778 3.22842 0 -0.156809 -0.495814 1.67032
433 1 3.38214 6.4531 2.8356 0 0.81211 -0.357926 1.50757
416 1 1.86793 5.86381 0.0754598 0 0.127845 0.977552 -1.44515
142 1 3.90741 9.89436 5.41382 0 0.689103 0.871509 -1.3513
999 1 4.55003 8.68702 0.306816 0 -0.86812 0.808495 1.28573
180 1 2.04201 5.57114 3.93926 0 -1.20589 0.599102 -1.11683
897 1 2.90948 7.9096 2.701 0 1.71475 0.335969 -0.0846736
316 1 4.26135 9.58276 2.02518 0 -1.44716 -0.639379 0.746546
507 1 2.64592 6.25293 4.60724 0 -1.17417 -1.2968 -0.00727402
981 1 0.821976 5.70256 1.67985 0 0.189674 0.337896 1.70595
428 1 3.53285 6.20516 0.989698 0 1.56281 -0.403426 -0.674733
207 1 3.99961 9.12893 1.03198 0 -0.624563 1.33948 0.936006
621 1 4.82649 9.68795 3.86848 0 0.463771 -1.16426 1.22058
758 1 0.570858 6.8202 1.75435 0 0.497067 0.899463 1.41573
725 1 2.24655 8.54761 3.09738 0 0.683072 -1.24855 -1.01732
118 1 4.35403 6.92206 2.78031 0 0.260547 -1.70378 0.299422
450 1 0.674946 5.488 3.69081 0 -0.43399 -1.17883 -1.21754
921 1 3.80902 7.67588 2.26731 0 0.76308 -1.54833 -0.284218
723 1 4.53773 8.28278 1.28011 0 -1.31536 -1.02419 0.530349
868 1 2.09919 7.76423 4.20589 0 0.604137 -0.768201 -1.45096
311 1 2.289 7.46961 3.29584 0 -0.0579569 -1.0825 -1.37304
623 1 3.8263 6.83741 1.86424 0 0.311487 -1.70086 -0.26542
103 1 2.18461 9.62035 3.13924 0 0.0343512 -1.71233 -0.356578
353 1 0.683198 5.94971 4.99673 0 0.759768 1.35532 -0.803904
151 1 3.93068 8.65079 2.18696 0 -1.23215 -1.24138 0.0344218
889 1 3.2797 9.75114 1.07749 0 -1.30948 -0.845148 0.794594
99 1 5.07845 8.79426 2.01933 0 -0.781019 1.52441 0.355807
756 1 2.66086 8.86419 0.607533 0 -1.29317 -0.561593 -1.03573
896 1 2.89521 7.08561 4.20847 0 0.155701 -1.7125 -0.321721
669 1 3.24699 6.18813 3.72666 0 0.647679 -0.90602 1.34909
1002 3 1.39044 9.46919 5.32708 13.626 0 0 0
214 1 3.11855 8.00091 4.04978 0 0.0109961 -1.59317 0.722562
919 1 1.51595 8.70532 4.63591 0 0.0293474 -1.38157 -1.07276
167 1 1.86736 8.85386 2.10213 0 0.392019 1.51503 -0.781927
996 1 1.28308 8.10074 3.67641 0 -0.0589303 -0.280551 -1.72575
830 1 2.30081 7.02629 5.22528 0 1.10538 -1.07766 -0.822903
554 1 1.64504 6.83483 2.14228 0 0.507039 0.97065 -1.36424
792 1 3.44499 7.38354 3.28852 0 1.72187 -0.0453648 0.305768
367 1 2.40824 6.15956 2.55245 0 0.844151 -0.952513 1.20022
964 1 1.73858 6.24326 4.55404 0 -1.7361 0.123354 0.176431
411 1 1.16739 9.28615 1.57611 0 -1.67403 -0.464439 -0.205727
239 1 1.97049 7.89079 2.35436 0 1.58097 0.528006 -0.531169
688 1 3.15151 9.34518 2.58463 0 1.11563 -0.712374 1.1438
474 1 2.26299 6.8789 1.06877 0 1.69524 0.214996 -0.374597
375 1 2.39872 8.84065 4.13494 0 0.964138 -1.44823 -0.182966
783 1 1.93835 6.56441 3.56632 0 0.232513 -0.271699 -1.71246
899 1 3.0735 8.81869 1.52456 0 -1.24306 -0.941476 -0.792984
306 1 4.78315 7.4204 1.83311 0 0.171362 -0.123428 -1.73661
513 1 5.05928 8.67428 3.15304 0 -0.817026 -1.47049 0.480136
838 1 1.3573 9.87048 0.42977 0 -0.582918 1.02334 -1.29359
594 1 4.84224 5.54954 0.683705 0 -0.546854 0.949449 1.36378
107 1 2.04546 7.88848 1.24663 0 0.169881 -1.53184 -0.827648
870 1 2.87054 6.98023 1.91618 0 1.57953 0.0485885 0.750415
631 1 5.12138 7.71527 2.75414 0 0.937804 -1.15252 -0.923377
518 1 3.19411 9.01765 4.74461 0 0.713195 -1.42834 -0.715269
155 1 5.0978 6.33222 3.78371 0 -0.210296 -0.323648 1.70629
741 1 2.96357 7.5212 0.496642 0 0.896956 1.50188 -0.0151221
1001 2 0.638731 9.83201 4.21505 -13.626 0 0 0
862 1 1.65113 9.51892 4.06125 0 -1.41395 -0.662391 0.788905
312 1 4.95602 8.00826 4.14465 0 -0.372791 -1.00311 1.3839
742 1 3.58812 8.39688 3.22588 0 1.03769 -0.655988 1.2463
556 1 1.14209 8.58458 2.83938 0 0.852974 0.5245 -1.43448
370 1 1.12568 7.73695 1.72823 0 -0.312129 0.694904 -1.57483
178 1 2.30424 9.63628 4.74936 0 1.42343 -0.371685 -0.946629
289 1 4.01047 7.61474 4.45639 0 0.645291 -0.727472 1.45423
6 1 0.443101 8.82404 4.14142 0 0.971587 1.42945 0.270375
445 1 3.98972 7.4472 1.07846 0 -1.44135 -0.557192 -0.820024
985 1 3.69217 8.27521 0.423765 0 -0.430955 1.69511 0.0359535
585 1 1.87691 6.02951 1.48057 0 1.71235 -0.248854 -0.25755
675 1 1.98723 7.95805 0.254373 0 -0.846989 -1.15732 -1.00181
253 1 3.49667 6.61723 4.97647 0 1.19199 -1.14968 0.563727
222 1 4.6045 6.53332 1.02235 0 1.74888 -0.00345652 -0.0426562
258 1 1.10477 6.58625 0.809223 0 -0.531657 -0.712737 1.50657
219 1 0.141944 7.94783 3.4809 0 0.520203 1.32601 -1.01562
468 1 1.34647 9.60701 2.56765 0 -1.24513 -1.19546 0.284464
833 1 1.18897 7.58268 2.8161 0 0.225396 0.70018 -1.58724
610 1 4.30968 7.70297 3.42637 0 1.50998 -0.822135 -0.323189
589 1 2.67075 8.02543 4.97344 0 -1.71219 -0.352736 0.0660789
39 1 4.0812 8.59696 4.10771 0 0.682065 -1.313 0.933391
397 1 0.27211 5.7551 2.83434 0 0.224209 1.68395 -0.417646
598 1 0.224506 6.71494 2.87376 0 0.1976 1.67949 0.447964
809 1 1.21532 7.40745 4.44039 0 1.48723 -0.292448 -0.873506
885 1 0.581528 9.69457 3.22209 0 0.315845 0.808 1.51914
668 1 0.204823 7.61016 2.23226 0 -0.132257 1.73998 -0.123967
646 1 4.812 9.64153 2.77762 0 -1.3483 -1.0838 0.26054
674 1 1.71499 7.91895 5.2404 0 -1.22041 -1.18568 0.406423
196 1 0.633785 6.50737 4.06525 0 -0.877429 -0.951981 -1.17654
240 1 2.94256 6.55068 0.222913 0 1.54296 0.338267 0.751839
893 1 2.27888 10.1303 0.79616 0 -1.35948 0.380385 -1.03321
176 1 4.5752 8.18177 5.007 0 0.633709 -0.276252 1.60702
859 1 1.57682 8.86213 0.813221 0 -1.32772 -0.444008 1.04901
852 1 0.273434 7.27889 4.60082 0 1.45488 -0.953722 -0.184732
759 1 3.86642 7.10497 0.0708676 0 0.557726 0.439813 -1.59872
700 1 5.15224 6.2038 1.73432 0 0.0165269 0.440021 1.69308
343 1 0.337692 9.70132 2.18765 0 1.60064 0.631047 0.316437
278 1 0.012111 9.04749 2.89302 0 1.02708 1.32006 0.512789
93 1 4.96821 7.61499 0.589697 0 -1.40554 1.0388 0.0758317
483 1 0.511227 8.67319 2.09074 0 -1.73884 -0.162866 0.101476
969 1 4.91994 9.55505 4.85792 0 1.48398 -0.521277 0.765807
425 1 5.42326 7.6152 5.106 0 -0.765845 -1.567 -0.135599
18 1 0.337254 5.81673 0.735995 0 -0.39122 -1.31315 1.08765
171 1 4.73855 6.02554 4.86377 0 1.72185 0.195139 0.239877
403 1 1.28432 6.65925 5.40579 0 0.450242 1.21207 1.17837
177 1 1.88337 7.04436 0.106716 0 1.05242 -1.3974 -0.00938123
78 1 1.01533 8.04326 0.705265 0 -0.264908 0.24449 -1.71186
922 1 2.81123 9.72994 0.0781502 0 0.748501 1.19599 1.03429
82 1 0.458525 9.8554 5.39969 0 -1.63546 0.612728 0.101232
779 1 0.500975 8.9619 0.7993 0 -0.204636 0.953243 -1.45253
564 1 3.51624 7.5749 5.38672 0 -1.69164 0.375436 -0.240415
875 1 4.85397 7.04877 4.60318 0 0.112361 -1.00524 -1.42733
550 1 0.487059 7.26386 0.204277 0 -1.26295 -0.271951 1.17958
189 1 6.09371 6.13483 2.60128 0 0.810003 0.798218 -1.32934
607 1 5.64703 5.7691 4.41349 0 1.48795 -0.548313 0.73876
596 1 8.10509 5.89127 4.33745 0 -0.791602 0.577266 -1.44932
255 1 9.18851 6.1918 2.5445 0 1.11638 -0.473702 1.26084
973 1 6.20837 6.13851 3.5542 0 -1.07418 0.285774 -1.35088
338 1 8.72651 5.83624 3.38503 0 -1.12317 1.08713 -0.785511
122 1 7.83358 5.62564 1.40796 0 -1.52797 0.741903 0.418662
333 1 5.77809 10.2524 4.12376 0 -0.975697 0.550231 1.34375
673 1 8.32798 6.22928 0.657011 0 -0.310441 -1.14465 1.28601
577 1 6.98377 5.51344 2.75931 0 1.3519 0.586401 -0.942818
210 1 5.98306 10.256 2.16469 0 0.173997 0.762716 1.56473
266 1 7.89705 6.44099 5.14508 0 1.56154 0.517469 -0.595159
530 1 9.1387 6.98515 0.55581 0 -0.125045 -1.74202 -0.100669
444 1 5.64195 7.06031 3.23506 0 0.139197 -1.74081 -0.103014
804 1 5.80765 7.95204 3.56811 0 -0.603963 -1.57151 -0.475367
583 1 5.55864 8.83683 4.16508 0 -0.0363664 -1.71708 -0.332752
771 1 9.78485 6.18783 3.43608 0 0.266478 -1.28708 1.15447
923 1 10.3399 8.0019 1.223 0 0.071593 0.605462 -1.63972
795 1 6.03656 7.13492 2.25234 0 0.181409 1.48233 -0.911145
822 1 7.42332 8.45812 3.87571 0 0.465654 0.11023 1.68268
81 1 6.1775 10.0307 0.11889 0 0.644948 0.159546 1.61833
938 1 5.57434 6.46675 0.48308 0 1.66476 0.393153 0.366601
120 1 6.37007 9.52885 1.416 0 -1.41937 0.582148 0.84077
41 1 5.81463 6.96049 4.26528 0 1.67557 -0.0744934 0.497305
366 1 9.63854 9.65824 3.32516 0 -1.66909 0.210713 -0.479713
279 1 9.85447 9.79634 0.0686142 0 -0.841571 -1.52298 -0.180767
462 1 10.0742 9.26356 1.4013 0 1.23854 1.16964 -0.397929
368 1 6.90176 6.54377 2.17839 0 0.190252 1.70443 -0.345153
25 1 9.43237 7.20654 3.0208 0 1.61288 0.630264 0.248538
904 1 7.95962 10.2619 4.4187 0 -0.687313 -1.05558 1.21398
297 1 10.0546 8.34304 4.67256 0 1.71551 0.153988 -0.306102
991 1 6.35162 6.60642 1.21338 0 -0.0990631 1.51791 0.864024
540 1 9.89465 7.2039 3.96147 0 1.09404 1.26446 -0.514399
385 1 6.65596 7.71782 2.77944 0 0.528111 1.66605 0.0759621
478 1 7.71584 8.05416 3.0108 0 -0.571593 1.41198 0.860237
489 1 5.86505 8.03909 1.97769 0 0.064808 1.26197 -1.2098
872 1 10.1075 5.68713 4.23317 0 0.289152 -1.32291 1.10757
503 1 7.49158 8.34376 4.89988 0 -0.403597 -0.861915 1.46786
373 1 8.60073 6.99636 2.26479 0 -0.0323661 -0.692163 1.60632
26 1 10.1112 6.18132 2.11386 0 0.283924 1.72451 -0.0764395
137 1 6.90944 6.99162 3.49007 0 0.87099 -0.561807 -1.40931
292 1 9.6123 7.08493 1.84751 0 0.281335 1.49253 -0.868113
748 1 7.79098 8.0135 1.12559 0 -0.0165817 0.658815 1.62052
828 1 7.80901 9.44866 3.64476 0 -1.44401 0.658469 -0.735965
667 1 9.93643 8.24761 2.60722 0 -0.714277 0.808254 1.37729
798 1 8.51863 8.98001 1.16109 0 0.261247 -0.484631 1.66051
611 1 6.3377 7.09614 0.19745 0 1.51853 0.216023 -0.841317
617 1 5.57192 8.61806 1.24291 0 -1.56985 0.037371 0.771078
70 1 9.47191 8.18296 3.65204 0 0.704556 1.08044 1.1818
96 1 5.80038 7.43661 1.09378 0 -0.856591 0.353603 -1.48378
109 1 8.9295 7.99878 2.5269 0 -0.0239064 1.74396 0.135809
408 1 9.46274 10.0379 1.1448 0 -1.10098 0.687732 -1.17272
390 1 8.02152 9.64623 2.47757 0 1.18716 0.68832 -1.08502
867 1 8.30012 9.9668 0.689504 0 -1.50384 -0.686606 0.572217
350 1 9.12687 9.22712 2.58091 0 -0.553043 -0.416586 -1.60655
595 1 7.86092 6.16897 2.3317 0 -0.0631356 1.73692 0.198814
840 1 9.04794 9.14887 0.330013 0 -1.58503 -0.161865 0.722404
452 1 8.47322 8.71448 3.23353 0 1.1093 0.192492 1.33896
654 1 7.61396 7.19778 2.42536 0 0.182015 1.45527 -0.95365
649 1 6.86442 7.39724 1.64876 0 -0.426703 1.48116 -0.827347
192 1 8.08524 9.22899 4.62765 0 -1.18402 -0.989702 -0.824005
850 1 9.7196 10.1699 2.1112 0 0.865086 -1.02635 -1.12188
754 1 7.20612 5.86775 3.8242 0 -0.971947 -1.16726 -0.867887
705 1 7.1565 9.28578 2.61348 0 0.299243 1.4936 0.860236
330 1 8.91809 6.27582 1.45659 0 -0.778005 0.807512 1.34277
593 1 6.52515 8.5483 3.22361 0 -0.626549 0.437592 1.57364
539 1 5.92646 5.69117 1.1987 0 0.222144 0.464635 -1.67188
113 1 8.05982 6.69141 3.27653 0 0.964687 1.24914 0.7546
498 1 9.06164 8.99449 4.10083 0 0.41136 1.70034 0.00630876
696 1 8.54727 7.53416 3.4003 0 0.912453 1.11017 -0.99767
650 1 8.20713 8.6584 2.03268 0 -1.51622 0.640071 0.593125
272 1 9.44004 8.5539 1.71972 0 1.60359 0.353067 -0.603514
405 1 7.24511 8.48904 2.00682 0 -0.805535 1.54049 0.196009
966 1 6.64813 8.24267 1.11396 0 -1.29667 0.844662 -0.815845
156 1 5.89104 8.00865 0.271446 0 0.125635 0.344108 -1.71062
993 1 7.81336 6.68115 1.46902 0 0.38905 1.41289 -0.955396
442 1 8.73033 7.76736 1.58115 0 -0.427013 -0.736955 1.52806
126 1 5.85055 9.60021 3.21289 0 -1.3101 1.03214 -0.527952
213 1 7.70682 7.49364 4.02767 0 1.66681 -0.525671 0.0762176
819 1 7.57756 9.10404 0.288574 0 -1.26582 0.684734 -0.994603
508 1 6.51592 9.11033 0.48549 0 -0.97704 -1.3854 0.43182
5 1 9.09525 8.05751 0.694246 0 -0.464263 -1.27868 1.09993
232 1 7.81753 10.2479 1.56703 0 -0.923423 0.494196 1.40124
144 1 10.1958 6.86324 0.943981 0 -0.424163 -0.468223 1.63133
456 1 9.99245 9.3959 4.25494 0 1.12087 1.2913 -0.369585
372 1 6.77231 9.54838 3.61366 0 -1.69642 -0.331248 0.269883
238 1 9.27496 8.55156 5.08327 0 1.49909 -0.575915 -0.693874
847 1 9.46197 7.40165 4.81823 0 1.61225 0.551084 0.39667
584 1 6.66427 7.79728 4.06713 0 0.617069 -1.14054 -1.17423
44 1 6.0871 9.21711 2.25413 0 0.638667 -0.853733 1.38696
722 1 8.69772 9.90546 3.40123 0 -1.49622 0.153657 -0.893377