ITEM: TIMESTEP
0
ITEM: NUMBER OF ATOMS
1002
ITEM: BOX BOUNDS pp pp pp
0.0000000000000000e+00 1.0346399999999999e+01
0.0000000000000000e+00 1.0346399999999999e+01
0.0000000000000000e+00 1.0346399999999999e+01
ITEM: ATOMS id type x y z q mux muy muz
3 1 1.94188 1.48403 4.66949 0 0.480018 -1.03612 1.32531
5 1 0.570426 3.13915 1.79514 0 -0.590131 -1.33693 -0.96165
10 1 5.35348 4.70102 2.48793 0 0.0215671 -0.523875 1.66898
12 1 5.17603 0.932862 3.62194 0 1.52816 0.851522 0.00475771
13 1 3.21154 2.98074 4.05314 0 1.18146 1.18967 -0.499247
14 1 5.03138 0.84772 4.69265 0 -1.42212 -0.333023 0.96285
27 1 0.492195 3.79939 0.908237 0 -0.553781 -1.36597 0.942262
28 1 0.863427 1.99554 0.20227 0 -0.320335 -1.0088 -1.39288
30 1 1.1079 2.54358 2.49171 0 1.12034 0.734144 -1.12529
48 1 3.93266 0.396333 5.04178 0 0.256615 1.19038 1.25601
57 1 3.07624 5.25162 3.47915 0 1.57933 0.751723 0.0322581
99 1 1.43456 1.51896 2.47632 0 -0.019667 1.72781 0.2733
100 1 3.9235 2.25598 2.79776 0 -0.596317 1.63206 0.202923
102 1 1.24788 4.92112 2.12102 0 -1.00353 -1.36473 0.436837
106 1 2.3869 3.72141 2.26874 0 0.881578 1.1029 -1.03288
115 1 5.33245 5.13732 3.48733 0 0.174927 -1.20754 1.25365
126 1 1.07052 3.55444 4.22236 0 -1.1699 0.151388 -1.29182
128 1 2.74526 1.79612 5.40213 0 -1.29834 1.17035 0.0707229
160 1 3.08447 2.03657 2.19821 0 0.7755 -1.45074 -0.595276
168 1 3.09232 3.01183 1.80819 0 -0.121311 -1.19146 1.27519
174 1 1.8573 2.27634 5.36946 0 -1.36414 0.734996 -0.811973
180 1 4.55845 3.82002 4.8055 0 -1.66341 0.536589 -0.0744833
193 1 0.971809 4.47572 0.209275 0 -0.944386 0.964169 1.11307
206 1 3.95547 1.30343 3.14414 0 -0.933937 1.17737 -0.895523
208 1 4.88171 2.12342 0.730565 0 -0.451374 -1.18763 1.20258
212 1 0.552793 4.81422 1.27974 0 -1.37067 1.00008 -0.42602
221 1 0.472324 1.0692 2.58538 0 1.01033 0.654058 1.26959
222 1 2.93553 3.90601 3.46961 0 -0.948737 0.150449 1.46207
234 1 2.45053 0.709943 0.261845 0 0.85269 -0.877313 1.25046
244 1 1.51889 0.769446 1.75451 0 1.2925 0.577117 1.028
254 1 4.00012 2.60438 4.86916 0 -1.67584 0.391666 0.31394
259 1 1.97229 3.88893 3.77968 0 -1.36091 0.530542 -0.962725
264 1 1.25758 5.37437 0.697394 0 -0.835339 1.21474 0.941821
265 1 0.578544 2.78454 0.820532 0 0.0122326 -1.09915 -1.36093
270 1 3.92159 5.28759 1.29061 0 1.22313 1.09786 -0.599198
290 1 0.851573 3.53348 2.91415 0 1.51256 0.814517 0.330324
307 1 3.00982 1.01748 4.04217 0 0.824314 -1.44965 -0.528598
310 1 1.96891 0.442719 4.35831 0 1.22639 0.538335 -1.12542
312 1 3.242 5.15055 4.96742 0 0.931674 0.0506548 1.4798
317 1 0.561376 4.15156 2.09555 0 -0.73565 -0.858305 -1.33511
323 1 1.65632 4.88726 4.10326 0 -1.27835 0.0995093 1.19009
330 1 4.75877 3.09047 1.11234 0 1.40667 -0.106036 -1.03462
333 1 2.27533 4.79172 2.17354 0 -1.21761 1.15716 0.48868
334 1 0.453914 2.74331 4.90743 0 1.4315 0.0292059 -1.00517
335 1 4.96254 0.384871 2.44847 0 0.413441 0.613022 -1.58546
373 1 4.96207 0.937473 1.59456 0 0.0553986 0.777282 -1.56626
386 1 4.53786 4.38072 1.4141 0 -1.36739 0.672036 0.859659
391 1 0.678151 1.19111 1.25503 0 -0.127873 -1.70257 -0.381208
392 1 4.93554 3.59049 2.09593 0 1.07113 1.36882 -0.198533
393 1 3.29985 1.95128 3.64581 0 -1.00962 -0.842789 1.15359
395 1 3.09644 0.0768292 4.39575 0 0.133125 -0.911739 1.48708
396 1 4.42259 3.75591 0.219719 0 -1.21337 -1.18299 -0.434379
405 1 2.83296 2.41496 0.913239 0 -1.52513 0.611668 0.600201
412 1 3.28627 0.481781 3.21548 0 0.99299 -0.689284 -1.26462
420 1 1.84436 3.21966 2.99024 0 1.338 -0.908872 -0.666424
433 1 4.06767 3.48319 3.88676 0 1.6563 0.11387 -0.551453
435 1 4.23272 4.7576 0.429723 0 1.08076 -0.996965 -0.947846
440 1 4.54519 1.86932 1.99111 0 -0.791927 -1.55924 0.0448852
460 1 3.19371 3.29832 0.428526 0 0.976292 -0.724761 1.25777
462 1 1.62023 3.21364 1.74296 0 -0.123221 1.35983 1.09366
469 1 3.17963 0.287088 0.816734 0 1.58934 -0.676411 0.277259
470 1 5.11376 3.27976 3.89062 0 0.346767 -1.32395 -1.08964
473 1 3.83782 0.389934 2.3658 0 0.0686001 -1.19477 -1.27602
479 1 2.28113 1.85679 3.73406 0 -1.38218 -0.839313 0.667476
490 1 2.12008 4.99437 3.1773 0 0.539006 -0.623658 1.54302
493 1 1.89466 2.31988 1.35521 0 -1.20921 1.21421 0.352007
494 1 2.61598 3.70503 4.58082 0 -1.2096 1.21368 -0.352519
510 1 4.10168 0.930215 4.10583 0 0.311071 -0.29054 -1.69683
516 1 1.31054 2.36568 4.50005 0 1.14723 -0.238564 -1.29898
524 1 1.59541 1.12466 3.58065 0 -0.854076 -1.50957 -0.228354
526 1 5.16323 5.07107 4.57903 0 0.375905 -1.44223 0.916015
538 1 3.25383 4.66188 2.47085 0 -1.25841 -0.072803 -1.21306
583 1 3.52822 3.25307 2.90307 0 -1.6578 0.323255 0.455653
598 1 4.61696 4.43555 3.86579 0 -1.40399 0.169807 -1.02974
617 1 0.543062 4.5376 4.09224 0 -0.466853 0.238991 1.66893
633 1 4.21697 4.74291 5.27704 0 -1.33987 -1.03382 0.443115
637 1 2.68961 2.63664 3.20548 0 0.39878 -1.32827 1.06634
641 1 3.86271 4.31258 3.19956 0 -1.10861 1.02322 -0.885659
647 1 4.36766 0.351253 3.26999 0 1.19166 1.12841 -0.60583
680 1 3.92578 3.90581 2.13297 0 0.280994 -0.171474 1.71815
681 1 1.46638 0.513236 5.2413 0 -0.0339653 -0.200473 -1.73754
684 1 4.328 1.97071 4.06132 0 -0.686145 -0.475326 1.53742
691 1 1.6749 3.2648 4.9951 0 -0.966027 1.00896 -1.05319
702 1 0.18168 2.52408 2.97555 0 1.50434 -0.891969 -0.0417879
709 1 3.50709 1.69878 4.66303 0 -1.16965 -1.2672 0.294149
717 1 5.32808 2.29399 4.00627 0 -0.168007 -1.38845 1.0509
730 1 4.16852 2.88989 1.95817 0 1.62733 0.579113 -0.277202
740 1 4.23802 1.33791 0.985296 0 -1.70316 0.399558 -0.00185773
743 1 1.05352 0.149294 2.5311 0 0.455892 0.740014 -1.5182
752 1 3.14693 1.40432 0.763411 0 -0.520263 1.06051 -1.29037
787 1 2.12482 2.87603 4.09069 0 0.946037 1.17295 -0.8886
790 1 2.50069 0.375515 1.59606 0 1.00966 0.707739 -1.241
793 1 4.56855 3.15718 3.01357 0 -1.06562 -0.649998 -1.2257
796 1 2.16286 3.16842 0.771537 0 -0.865383 1.35386 -0.691795
802 1 1.36314 4.15425 1.37833 0 -0.617947 0.747462 -1.45597
806 1 2.3439 1.42686 1.52183 0 -0.415792 1.48384 -0.828093
807 1 3.75023 2.15345 1.31148 0 -0.994797 1.38494 -0.390797
810 1 3.03192 4.07028 1.57365 0 1.22181 -0.593363 -1.10249
825 1 4.84934 1.84843 3.16402 0 -1.63061 0.289368 0.563719
830 1 3.86368 5.12558 4.12548 0 -0.0999662 0.476874 1.68018
832 1 5.21657 2.54069 2.30277 0 -1.03851 -1.16995 -0.783015
835 1 2.62474 0.79006 5.17244 0 1.65988 0.267496 -0.483355
846 1 2.70673 4.64131 4.23401 0 -0.228921 1.70139 0.336561
854 1 0.771146 1.71632 3.33517 0 1.09301 0.654124 1.1991
867 1 1.13284 2.65596 3.52441 0 0.1892 1.55168 -0.785423
878 1 2.11637 2.31821 2.41142 0 1.47162 -0.0961092 0.941004
897 1 2.09966 0.412423 2.56061 0 1.53322 0.841278 0.0435806
910 1 3.3828 1.19675 1.7439 0 -0.119857 -1.05683 -1.38893
935 1 4.99492 2.83574 4.85307 0 -1.57871 0.452684 -0.602622
951 1 0.643669 0.76906 3.86798 0 -1.52059 0.688164 0.524056
970 1 0.0332757 3.72006 4.65653 0 1.2519 -0.151445 -1.21252
972 1 0.876486 2.10054 1.58502 0 0.120558 -1.68023 -0.471916
981 1 0.240754 3.24526 3.75807 0 -1.28862 -0.725467 -0.934647
992 1 3.85305 3.56773 1.14233 0 1.49483 0.040543 0.90787
1000 1 3.86767 2.04261 0.259195 0 -0.895433 -0.973038 -1.14534
1001 2 0.406719 0.429307 0.715887 -13.626 0 0 0
288 1 0.0956513 4.80009 2.73923 0 1.42662 -0.279422 -0.973174
543 1 1.19239 4.40911 3.29428 0 -0.719535 1.38704 0.786637
644 1 2.23852 4.67434 1.10911 0 0.357117 -0.69305 1.56606
654 1 1.3217 0.135505 0.936523 0 -1.04702 1.2705 0.591598
687 1 4.30044 4.91165 2.24945 0 -0.608253 0.734357 1.46668
782 1 4.10406 0.451184 0.346561 0 0.749757 1.01356 -1.21284
890 1 2.91439 5.36859 1.51275 0 1.33393 -0.918907 0.660784
926 1 0.428887 0.553647 4.9051 0 -1.34011 0.214741 1.10381
640 1 4.07757 0.343837 1.3754 0 1.58916 0.62079 -0.386769
884 1 5.11601 0.780336 0.555075 0 0.972741 1.39217 -0.419577
56 1 3.60515 4.16273 4.59811 0 -1.44313 -0.067406 -0.986523
142 1 4.47916 1.64922 5.087 0 -1.25389 0.844163 0.880659
224 1 2.76362 2.74508 4.97284 0 -0.579376 0.57187 -1.54845
425 1 2.49216 4.07708 0.286477 0 0.796164 1.12658 1.0758
552 1 0.570815 1.56841 5.20871 0 0.707258 0.537156 1.5072
899 1 1.32838 3.49134 0.313447 0 -1.52124 -0.213411 -0.837064
915 1 3.24964 4.66279 0.74054 0 0.945006 0.932883 -1.1389
907 1 0.763461 5.35171 3.39329 0 -0.776402 0.493213 1.48807
967 1 1.55447 0.134727 3.43573 0 -0.426985 -1.3842 -0.98086
600 1 4.32901 5.28062 3.19527 0 -0.564524 1.07826 1.25661
42 1 1.5244 5.08762 5.17212 0 1.59345 -0.579549 0.430636
388 1 0.855952 4.26011 5.04775 0 0.882089 0.69944 1.33907
2 1 2.13673 1.71048 0.476521 0 -1.53469 -0.837558 -0.0602141
382 1 5.18576 4.39711 0.599869 0 -0.317502 -1.09414 1.32757
581 1 0.23196 1.17203 0.0819183 0 -0.685259 -1.55052 0.432115
856 1 1.18878 0.785997 0.0761706 0 -0.971555 1.42644 0.285929
983 1 5.40389 3.36809 0.357009 0 -0.328892 1.12778 -1.29628
732 1 3.64372 3.45522 5.36759 0 -0.392171 1.50781 -0.795692
611 1 1.95562 4.94888 0.0813728 0 -1.18957 -0.176504 1.2705
998 1 5.46276 4.10392 4.3656 0 -1.12021 -1.33841 -0.119199
822 1 0.00466296 0.16216 2.2587 0 1.69171 0.439861 0.0709241
25 1 5.50628 1.80603 4.88383 0 0.288593 -1.32186 1.10896
962 1 5.59266 1.56179 2.17787 0 -1.07537 -1.13809 0.780207
591 1 10.2263 3.45657 2.58061 0 1.69807 0.0303819 0.419546
232 1 5.50232 3.61274 5.32971 0 -0.870987 -1.41448 -0.548662
340 1 5.68095 1.49904 1.09482 0 1.66107 0.528032 -0.149811
394 1 9.97841 2.6762 1.84492 0 -0.915718 -1.35202 -0.627612
249 1 5.47302 4.09335 3.26962 0 1.1701 -0.920132 0.919036
95 1 5.99257 4.49703 5.17633 0 -0.345907 -1.71361 0.0655017
98 1 5.70098 3.80489 1.31957 0 0.66236 -1.42739 -0.76435
159 1 9.8252 3.89834 0.592467 0 0.838251 0.647954 1.39208
229 1 5.87536 0.902362 5.33895 0 -0.0376964 -1.6517 -0.575212
571 1 9.89588 0.357925 4.2485 0 1.17458 0.471907 -1.2075
715 1 5.47232 4.86947 1.51124 0 -0.669579 -1.25655 1.01644
779 1 5.89691 0.457964 4.32294 0 -1.25551 1.20559 0.175059
6 1 9.1673 4.2504 1.64333 0 -1.53 0.846416 -0.0555762
8 1 8.10323 2.37108 0.18366 0 0.0215868 -1.40884 -1.03688
22 1 8.89568 0.823693 1.05963 0 1.29004 1.18105 -0.0361839
34 1 8.68073 0.965466 2.08322 0 -1.15943 -1.14709 -0.632703
37 1 7.21963 1.35307 2.07183 0 -0.665594 -1.13698 1.15094
41 1 9.77731 3.02629 5.20707 0 0.740594 -1.07529 -1.16433
44 1 6.29816 4.71876 2.91658 0 1.67052 0.0286801 0.518585
47 1 7.21304 5.01152 1.18698 0 1.13342 -1.25345 0.452364
49 1 6.47 3.27193 0.891869 0 0.971364 -1.19462 0.830504
53 1 9.64637 3.01878 3.31618 0 0.433531 0.370687 -1.6538
62 1 6.90669 0.213778 4.5734 0 -1.28303 -0.837888 -0.843899
66 1 9.16542 3.16577 2.38558 0 1.06307 -0.895176 -1.06252
67 1 6.13821 0.951726 3.08 0 -0.390181 1.13752 -1.27052
72 1 10.059 3.75199 1.59695 0 -1.49443 -0.332738 0.846386
76 1 9.09192 0.11725 0.255721 0 -1.63631 0.450768 0.42389
77 1 8.19032 2.96425 4.03447 0 -0.977768 0.911086 -1.12885
79 1 9.05978 2.08988 0.583203 0 -1.47162 -0.297831 0.897793
83 1 6.58863 3.07997 1.9271 0 1.63277 -0.627906 0.0135333
87 1 9.25418 1.17623 4.32487 0 0.103407 -0.713929 -1.59374
89 1 8.44404 3.9556 4.30484 0 1.17892 -0.275152 1.26287
110 1 8.36115 1.95932 1.92395 0 1.1815 -0.990185 -0.827038
116 1 8.76993 1.92905 3.28182 0 -0.887942 -0.247705 1.48681
135 1 10.0841 0.840656 3.37779 0 -0.81187 0.681882 -1.39151
143 1 9.14269 5.2244 4.53971 0 0.228759 0.364357 -1.69568
147 1 9.46217 0.247892 1.81513 0 0.666104 0.200735 1.60512
155 1 7.66741 0.77935 1.30975 0 -0.760361 -0.957441 1.25122
158 1 8.41433 3.94333 2.33479 0 1.02377 -1.02108 0.984721
182 1 8.06613 1.934 4.01879 0 0.363537 0.631962 1.59024
204 1 9.14602 4.04468 3.06285 0 0.487204 -0.365602 1.63993
205 1 7.51389 2.00155 5.24628 0 1.58313 0.0336343 -0.74362
272 1 8.35284 2.87954 3.01773 0 1.0503 0.412713 -1.33676
304 1 8.9497 2.69247 1.46603 0 -0.591243 1.40355 -0.860746
311 1 6.37322 3.96096 0.0949062 0 -0.397035 0.862651 1.46922
316 1 9.44614 1.16497 0.260385 0 1.09944 1.09591 -0.806596
324 1 6.47635 2.11963 2.2984 0 -1.13593 -0.641905 1.16535
351 1 7.40361 4.42612 3.8031 0 -1.02012 1.07213 0.932904
355 1 6.63214 1.85852 0.962725 0 1.2773 1.18443 -0.161381
360 1 9.08904 2.18819 4.30111 0 0.219414 -1.42908 0.984884
367 1 7.44801 1.12351 4.63344 0 -1.17496 -0.454126 -1.21394
371 1 6.26725 2.87274 3.86677 0 -0.221856 0.518624 -1.65596
374 1 8.70803 4.77072 3.6767 0 -1.69597 0.119725 -0.411999
375 1 6.01122 1.4794 4.04851 0 0.870703 1.19589 0.93388
379 1 9.97867 5.23209 3.86409 0 1.19555 -0.132803 1.27021
442 1 9.60211 2.01904 5.20591 0 -0.852385 -1.31424 0.778848
455 1 7.44436 2.48035 3.32384 0 1.3645 1.09374 0.0476251
458 1 7.31321 2.26679 1.69562 0 -0.0131575 -1.22943 1.24448
474 1 8.00411 1.37694 2.78586 0 1.52732 0.621445 -0.584369
480 1 7.42836 0.55239 2.99329 0 0.971754 1.04102 -1.01605
482 1 5.86992 2.5216 1.43503 0 -0.306141 1.04678 1.36782
486 1 7.00495 1.59646 3.04796 0 1.21614 0.625335 1.09104
511 1 7.39512 3.48226 1.39686 0 0.866057 1.06148 1.08794
514 1 9.00744 5.24713 1.90751 0 -1.07825 1.33807 0.327618
522 1 7.25428 3.34739 3.90695 0 -1.25236 1.18389 0.300648
523 1 7.96808 5.08141 4.78303 0 -0.254488 -1.31463 -1.12578
549 1 6.19391 0.865227 0.374565 0 0.453718 0.491037 -1.61661
567 1 8.89025 3.50852 0.902454 0 1.18854 0.740048 -1.04886
572 1 6.33473 4.38129 3.89744 0 -0.469868 -0.108975 1.68159
582 1 8.0479 3.84675 3.31229 0 -0.744987 0.746407 1.3958
585 1 6.47753 3.66471 4.6253 0 -0.144032 -1.29651 1.16564
594 1 7.29433 4.99302 2.84904 0 1.33672 1.12221 0.119272
603 1 10.0896 4.1483 3.48998 0 1.03988 1.39353 -0.192641
613 1 8.32113 0.46556 4.83029 0 -0.750975 -1.15447 -1.07872
615 1 6.57221 3.5713 3.17169 0 -0.409871 0.492899 -1.62772
634 1 7.43387 1.49553 0.250864 0 -0.401367 -0.799736 -1.50324
642 1 7.26405 2.65673 0.740496 0 1.68626 0.269546 0.379844
645 1 7.06702 2.32812 4.30612 0 -0.0739681 0.888341 -1.50525
649 1 6.58666 4.54642 1.88524 0 1.49433 0.808515 0.416765
652 1 10.0222 0.924068 1.1898 0 -0.327376 -1.219 -1.21131
658 1 8.71511 4.38868 0.349565 0 -1.06007 -0.874318 -1.08269
661 1 6.85876 0.909808 3.81702 0 -1.07841 -0.511878 -1.27883
663 1 8.06428 2.93448 2.00972 0 0.302116 -1.67805 -0.391516
670 1 10.2573 1.63458 1.90054 0 0.974024 -1.43587 0.223487
683 1 8.1693 1.63322 0.943223 0 -1.70067 0.295535 -0.284249
722 1 9.21359 3.23403 4.26391 0 0.347447 -1.16872 -1.2545
725 1 8.28558 4.82547 1.17232 0 0.60398 -0.825995 -1.41892
738 1 10.3259 1.89744 0.85703 0 0.283483 -1.12434 1.30992
744 1 7.00171 4.63865 4.72116 0 -1.26859 -0.55908 1.06701
747 1 9.30389 2.14615 2.47425 0 -0.888623 -0.745679 1.30947
748 1 9.55242 1.12726 2.58507 0 -1.13869 -0.259481 -1.30248
756 1 8.86597 0.847233 3.44247 0 -0.697028 -1.25151 -1.00413
759 1 7.89578 5.38307 3.65625 0 -0.768051 1.31669 0.858383
761 1 7.75125 4.10391 0.634437 0 -1.314 -0.638604 -0.962289
763 1 7.39991 3.53219 2.51625 0 1.73517 0.185057 0.123818
789 1 5.85512 1.99914 3.11217 0 -1.19901 0.589492 1.12928
792 1 6.00091 3.84117 2.35044 0 0.284119 0.6343 -1.60541
799 1 7.78681 0.343437 3.94475 0 -1.41735 -0.00765974 -1.0254
804 1 9.97617 4.92822 1.75093 0 -1.30851 -0.708483 0.919922
811 1 7.63361 4.44154 1.93774 0 1.26865 -0.786553 0.912279
833 1 10.3141 4.84763 0.419382 0 -0.476843 -0.582667 -1.57909
857 1 6.01723 2.75804 4.91967 0 -1.06611 -1.17625 -0.73502
860 1 8.13737 0.599468 0.43251 0 0.252409 0.770965 1.54994
863 1 10.3182 1.37765 4.41234 0 1.06361 1.17738 0.736828
902 1 10.0575 2.2532 3.88418 0 -1.11479 1.00692 -0.896524
904 1 5.66237 3.06552 3.03203 0 -0.682768 -0.490073 -1.53429
908 1 9.77794 0.912171 5.16806 0 -0.73732 0.642443 -1.45053
913 1 5.85066 2.41595 0.410876 0 -0.268165 0.81357 1.52532
917 1 9.38219 3.9853 4.95706 0 0.274685 -1.71944 -0.168783
932 1 8.4157 1.52041 4.88193 0 -0.280522 -1.34938 1.07744
933 1 6.86108 5.32794 3.75822 0 -1.1729 0.287706 -1.26568
934 1 8.19022 3.99311 5.33136 0 -1.20234 1.16918 0.497799
973 1 6.22188 4.63252 0.854299 0 -0.948956 0.74192 1.26864
979 1 9.77552 2.83465 0.812528 0 0.0123553 -0.49699 -1.67727
980 1 9.30601 1.67456 1.51362 0 1.05373 0.874621 1.08862
985 1 8.40603 0.209424 2.76361 0 0.583553 -1.5986 -0.405381
328 1 9.43367 0.115175 2.852 0 0.262523 -1.05889 1.36756
349 1 7.07109 4.7322 0.182315 0 0.0865139 1.74402 0.106388
602 1 5.90352 0.574105 2.11064 0 1.23354 -0.911907 -0.840957
943 1 7.04164 0.325363 2.00234 0 -1.55102 -0.773324 -0.238164
242 1 6.54101 1.81407 5.03923 0 1.73089 0.241424 -0.0784151
410 1 10.0966 4.74078 4.74074 0 -0.522868 -0.618971 1.55045
895 1 8.02832 2.92518 5.11487 0 -1.19972 1.22897 0.332746
561 1 9.43091 5.0742 2.9 0 0.878128 -1.50691 -0.136084
364 1 6.07439 5.4538 2.14286 0 -1.53036 -0.714805 -0.455458
734 1 7.11276 0.27218 0.540849 0 -0.507855 1.12791 -1.23705
38 1 7.00418 2.95253 5.20172 0 -0.93083 -1.41308 0.444041
363 1 10.0888 0.0672358 0.0142293 0 -0.750354 -0.199047 1.56772
263 1 6.33321 0.241768 1.26548 0 0.198643 -0.830211 -1.52699
237 1 9.41543 5.38934 0.276361 0 -0.0259654 1.58776 0.733983
1 1 7.77696 5.43657 0.416532 0 0.66223 1.55276 0.459129
465 1 8.41716 0.0731094 1.63668 0 0.930758 -0.758296 -1.27243
565 1 2.97099 10.1473 2.39899 0 -1.06796 -0.709106 -1.19039
873 1 0.297427 10.2666 3.28353 0 0.734094 -0.14765 1.58105
577 1 2.31717 5.68915 0.748863 0 0.342219 -1.39285 1.00163
496 1 0.864581 5.47461 4.40938 0 0.182864 1.49379 0.891943
937 1 5.19377 5.75555 2.66064 0 -0.761009 -1.16682 1.0582
11 1 1.74562 10.0477 1.85752 0 0.815311 1.38911 0.682665
173 1 4.12757 9.72439 3.21282 0 -0.178116 1.73978 -0.0427286
400 1 2.88603 6.28157 3.3605 0 -0.410209 1.13841 1.26339
650 1 5.09415 10.189 3.86658 0 -1.13847 0.309844 1.29162
713 1 2.3472 5.5419 4.6366 0 0.942927 1.06422 1.01918
809 1 1.8337 5.88382 3.7083 0 1.21678 -0.987002 -0.778247
17 1 3.77615 7.60865 3.87427 0 0.873114 1.51072 -0.125721
18 1 2.40256 9.2053 1.99127 0 -0.0344227 -0.79718 1.55683
36 1 0.188804 9.49429 0.329354 0 -0.904242 -1.31503 0.716549
55 1 4.32602 8.39421 3.41884 0 0.723445 1.28836 0.936567
65 1 4.09694 5.73626 4.93421 0 1.6104 0.15032 0.666657
81 1 3.36232 8.84749 1.54787 0 1.40926 -1.00672 0.246796
82 1 3.84443 7.78305 5.32419 0 -1.24489 -0.398449 -1.16271
86 1 0.1504 6.37086 2.133 0 -0.968117 1.24693 0.753874
90 1 3.44878 7.82112 1.60608 0 -0.89423 -1.44252 -0.424126
91 1 0.858439 6.95963 4.93755 0 0.652304 -1.60188 0.262441
103 1 2.45885 8.75093 1.04397 0 -0.0227498 1.30367 1.16633
152 1 1.97237 9.70875 0.876902 0 -1.05642 1.38786 -0.135032
154 1 3.74734 9.52014 0.771798 0 -1.55522 -0.800953 -0.0122477
161 1 1.04607 6.94434 2.42019 0 -0.0824903 -1.55441 0.798381
187 1 3.23606 8.83703 5.42363 0 0.437862 -1.36818 -0.998377
188 1 0.180035 6.13482 3.99482 0 -0.695537 1.13378 -1.1363
189 1 1.00533 6.84612 1.36873 0 -0.162193 1.5636 0.767626
213 1 3.79028 5.8989 2.1529 0 0.533952 0.0747011 -1.66425
216 1 2.68508 7.16524 1.74527 0 -1.51157 -0.0332541 0.880024
217 1 5.156 7.54242 3.28836 0 -0.0490579 0.945357 1.47115
220 1 3.69382 8.78847 4.43773 0 -0.573407 -1.61599 -0.346671
226 1 5.24582 9.6587 2.45268 0 -0.313298 0.021103 1.72099
258 1 0.707255 9.99701 1.67071 0 1.07232 -0.846624 -1.0926
276 1 4.49273 8.06952 4.4661 0 1.51782 -0.596782 0.632828
281 1 4.10834 6.9916 1.86399 0 1.10288 0.742057 -1.13728
286 1 1.04488 7.91523 1.64593 0 -1.09027 1.02521 0.905907
292 1 0.138502 9.45073 3.92327 0 -1.30047 -1.15339 0.197153
301 1 0.599025 9.53932 2.61889 0 0.164154 1.66088 0.524352
305 1 4.9989 6.91981 1.29903 0 1.25595 0.240455 1.19381
309 1 2.20446 8.33929 2.89553 0 0.453589 0.396539 -1.64238
336 1 1.45685 9.76837 5.15943 0 -0.451578 -0.931862 -1.41
344 1 2.77555 5.66151 2.54607 0 0.580499 0.5175 1.56704
345 1 2.99848 8.07525 4.74891 0 -1.22056 -1.23826 0.193264
352 1 5.04532 7.17539 2.3437 0 0.136288 1.05708 1.38723
380 1 4.52208 7.88631 1.46325 0 -0.110712 1.67681 0.48625
381 1 0.649023 7.85655 2.93416 0 -1.16968 -0.0231228 -1.30066
397 1 2.07554 8.20174 1.87145 0 -1.11097 -1.3071 -0.342997
414 1 4.62783 9.1999 3.98426 0 -1.04935 1.24256 0.644445
418 1 2.10353 6.67146 0.585996 0 0.767067 -1.39198 -0.731021
424 1 2.68192 9.19158 4.60102 0 0.792546 1.50517 -0.40832
429 1 5.26057 7.89508 5.23103 0 0.396826 -1.66273 0.371838
430 1 2.02252 7.36848 2.51199 0 -1.17539 -0.43194 1.22159
438 1 1.09203 9.53413 3.56901 0 -1.12689 -0.702113 1.1391
446 1 2.37379 8.06539 3.87904 0 -1.04628 0.897679 -1.07698
449 1 4.65739 5.83363 4.03338 0 1.69015 0.316537 0.321846
456 1 1.49208 8.43193 0.737397 0 0.896908 0.742483 1.30563
467 1 0.854776 7.50963 3.92856 0 0.144724 -1.41469 -1.01888
478 1 2.80681 9.49792 0.289766 0 -1.41148 -0.941138 0.427056
483 1 2.30144 6.15084 1.77871 0 0.760573 -1.5669 -0.163569
497 1 4.25952 8.78286 5.3397 0 1.6069 0.690898 -0.030699
509 1 4.09938 7.22278 2.9189 0 -0.875393 1.08808 -1.05364
531 1 2.08132 9.218 3.73797 0 -1.20805 0.875595 0.913427
533 1 2.21069 7.79767 5.35415 0 -1.06017 0.18346 1.37942
537 1 5.30577 8.95581 5.30005 0 0.961261 -1.04778 1.01908
541 1 3.49117 8.0311 2.62431 0 0.869065 1.08461 -1.06242
546 1 1.36056 8.49552 3.45101 0 0.901436 -0.336007 -1.46113
553 1 3.29427 6.74955 2.46929 0 0.181006 -1.1323 -1.32119
555 1 4.1328 10.1343 4.22452 0 -0.948747 0.427161 1.40635
563 1 1.14356 6.61614 3.46306 0 1.54737 -0.8099 0.100591
610 1 1.53338 6.25732 4.60791 0 1.31944 0.0914518 -1.14504
625 1 4.94665 9.80153 4.83211 0 0.143822 -0.943293 1.46626
657 1 0.433604 8.44842 3.85726 0 1.25693 -0.804379 -0.912966
664 1 3.12757 7.05282 0.614809 0 0.777503 1.18131 -1.02976
665 1 2.98457 8.0673 0.487828 0 -1.54758 0.66573 0.471392
674 1 1.04413 5.92078 2.54969 0 -0.924956 -1.47577 0.164184
675 1 2.72924 9.26761 2.94652 0 0.0568515 0.371307 1.7086
676 1 2.89345 7.36116 3.1638 0 1.15268 -0.0665635 -1.31427
679 1 3.29084 6.40175 1.38145 0 -0.979122 1.42054 -0.289482
696 1 4.16369 7.22143 0.757348 0 1.29444 -0.294685 1.13929
704 1 2.44451 10.0907 5.08519 0 -1.32036 0.0763865 1.14508
705 1 3.66607 6.18895 4.09732 0 1.33404 -1.03774 -0.451485
708 1 4.50661 6.84414 3.77927 0 -1.39982 -0.355792 -0.987077
711 1 0.905922 7.60863 0.659507 0 0.173639 1.69744 0.385929
733 1 1.04431 10.2587 4.35023 0 -0.180435 1.60822 -0.664439
749 1 1.64203 9.24271 2.71227 0 -0.760047 1.17929 1.04499
773 1 4.67936 8.45196 2.37507 0 -1.74012 0.0396763 0.175496
775 1 5.03602 6.07826 5.03243 0 1.74161 -0.0355108 -0.161013
783 1 2.55569 10.1498 3.52651 0 1.3656 0.859312 0.676105
785 1 3.30787 9.51308 3.81656 0 0.859498 -1.52165 0.0789485
788 1 3.71564 6.95986 4.75129 0 -0.852845 -1.05299 -1.10647
817 1 1.90965 7.5011 1.14945 0 -0.775431 -0.850171 -1.31769
820 1 3.76615 6.22925 0.429456 0 -1.55099 -0.802575 -0.103491
823 1 3.26992 8.53013 3.49958 0 0.15584 -1.46382 -0.945174
829 1 2.87506 7.20278 4.1694 0 0.413642 0.758111 -1.52137
844 1 4.94312 7.10556 4.65735 0 -0.970799 -1.18137 -0.849891
847 1 1.83378 7.16185 4.10675 0 1.19874 0.407643 1.20717
852 1 0.531947 8.80327 1.02903 0 0.943818 -0.284049 1.44531
853 1 4.65996 9.97533 0.56925 0 -1.00172 0.780509 1.20323
859 1 5.3131 8.39317 3.91051 0 0.189167 1.46797 -0.932572
871 1 2.91681 9.77186 1.34775 0 -1.39867 -0.788972 0.694004
874 1 1.95 6.34524 2.75595 0 -0.387465 -0.640986 -1.58095
885 1 0.668813 5.8719 1.39015 0 0.548357 1.16755 1.18175
893 1 3.8456 9.77975 1.81919 0 -0.617499 0.741083 -1.45942
894 1 3.94566 6.21488 3.11849 0 -0.849362 0.817469 -1.29257
920 1 0.120707 7.49865 1.38431 0 -1.10185 -0.926565 -0.993887
922 1 3.82008 8.98769 2.51196 0 -0.552472 1.63629 0.278823
924 1 1.71634 8.86029 4.73088 0 1.1801 -1.23637 -0.373021
941 1 0.550858 8.68918 2.06032 0 -0.190648 1.13728 1.31554
944 1 4.48883 8.95191 1.46137 0 -0.693226 0.657872 -1.46528
968 1 1.43099 9.09464 1.56012 0 1.3124 1.01908 0.547268
982 1 3.55598 9.70695 4.96432 0 0.579062 -1.32549 0.983951
385 1 4.7141 5.824 1.67352 0 1.70898 0.370549 0.04977
569 1 4.88981 10.059 1.58426 0 1.1054 -1.005 0.910193
959 1 0.208645 6.84348 3.05361 0 0.65549 -0.336583 1.58665
436 1 4.7844 6.11448 0.621322 0 -0.92251 1.18578 0.896274
88 1 5.1834 7.09452 0.274575 0 0.338786 -1.40018 0.992538
464 1 4.56938 7.94041 0.104917 0 0.915938 -1.47468 -0.216306
481 1 2.53328 6.53254 4.85153 0 1.13381 1.27807 0.376047
568 1 1.32136 7.90385 4.75811 0 -1.43105 -0.939705 -0.359788
597 1 0.399999 5.80286 0.287616 0 -1.33932 -1.10299 -0.223726
755 1 3.93052 8.47244 0.759749 0 0.036226 -0.960463 -1.46171
341 1 4.85664 8.94981 0.495941 0 -0.466683 1.17362 -1.21047
273 1 0.725599 9.03483 4.75268 0 1.39224 -1.02892 -0.251781
721 1 1.07165 6.61287 0.260412 0 0.0684519 -1.06867 1.38335
993 1 1.33543 9.42101 0.0775159 0 0.848169 -0.980094 -1.17492
720 1 0.175765 9.88195 4.89793 0 0.834403 -0.740283 -1.34765
207 1 0.645437 5.65966 5.39432 0 -0.0343678 -1.52045 0.864545
227 1 2.09919 7.68018 0.101683 0 -0.377681 -1.28846 -1.12144
346 1 0.755749 8.51068 0.0285635 0 0.175191 -0.415487 1.69029
1002 3 0.766962 10.2283 0.0666036 13.626 0 0 0
843 1 10.346 6.67445 0.75558 0 0.870813 -0.921511 -1.20536
812 1 10.3087 8.6797 2.89129 0 -0.399363 0.90898 1.44037
886 1 10.1081 7.64639 0.35488 0 -1.48115 -0.564372 0.740326
506 1 6.1589 5.7528 3.19767 0 -1.33404 0.784317 -0.815831
660 1 5.50212 6.58575 3.26174 0 -0.0398393 1.31911 -1.14837
141 1 10.1589 8.633 4.97424 0 0.308055 1.65376 0.480173
411 1 5.50119 8.73809 2.9113 0 0.563897 -1.52987 -0.633981
685 1 10.3082 7.46141 4.96958 0 1.56684 -0.223974 0.745159
501 1 5.86295 10.2398 3.1862 0 -0.731822 1.46982 0.603721
15 1 6.52078 5.7177 0.939259 0 1.55689 -0.684195 0.410332
111 1 7.39483 6.21899 1.10464 0 0.94732 0.97469 1.10135
144 1 6.88463 10.1941 3.60646 0 -0.328758 -0.6188 -1.60294
238 1 5.64116 6.0649 1.34425 0 1.14889 0.159148 -1.30963
457 1 10.2025 5.79948 3.0252 0 -0.907045 -1.49332 0.0875492
716 1 9.06578 5.76098 3.56686 0 1.07581 -0.810709 -1.11615
746 1 8.85276 10.1356 3.66041 0 -1.0282 -0.504552 1.32236
767 1 10.3006 6.35812 5.01198 0 0.325577 -1.59318 -0.645119
521 1 6.011 9.82647 4.67921 0 -0.25188 1.72485 0.147859
534 1 5.70599 9.34115 3.74242 0 -0.821656 0.983953 -1.19043
32 1 8.54445 9.69405 4.58603 0 1.06046 -0.933128 1.03204
35 1 10.0065 9.12102 1.59958 0 -1.25318 -0.266963 -1.19108
46 1 7.63672 8.27097 2.26316 0 0.376053 -0.626798 1.58937
75 1 9.16482 8.2508 3.43063 0 1.30917 -0.679407 0.940677
78 1 9.4212 9.46771 0.216162 0 -0.746543 0.580105 -1.47192
84 1 6.11709 5.50169 4.58208 0 -1.49352 -0.649577 -0.638619
104 1 7.12953 8.13735 3.22226 0 0.75423 -0.970223 1.24507
114 1 7.03443 9.2128 1.80631 0 -1.28 -0.312271 1.15086
124 1 7.21533 7.11703 3.65656 0 -1.3674 -0.633255 -0.888593
127 1 8.30287 8.94942 1.79173 0 0.0791656 -1.38033 1.07184
129 1 9.55758 8.6229 0.830908 0 -0.139317 0.481918 -1.67593
133 1 7.80845 9.59864 1.20692 0 0.0879214 -0.896105 1.49989
139 1 8.94216 7.44605 2.75442 0 -1.59898 -0.695817 -0.139697
150 1 9.93111 7.68879 3.0402 0 -0.447697 -1.4133 -0.928729
153 1 6.47456 7.03713 2.93655 0 -0.367579 -1.57088 -0.676486
172 1 7.915 7.08162 0.856082 0 0.992461 1.23459 -0.742429
179 1 9.36296 10.2543 4.98388 0 0.121088 1.04029 -1.40126
190 1 9.37306 6.26455 4.49634 0 0.00529523 1.74559 -0.115253
194 1 8.80004 9.70534 2.36122 0 0.800029 -1.16294 -1.0334
196 1 6.51495 8.67342 2.51768 0 -0.959585 -1.29977 0.670958
198 1 5.6639 10.2263 0.589903 0 -1.491 0.614774 -0.67778
218 1 8.20996 9.87951 0.283309 0 -1.46213 0.863486 0.420683
223 1 7.6796 10.0369 5.08743 0 -1.20396 -1.18741 -0.448254
247 1 7.75828 9.63798 3.90403 0 -0.0124881 1.27288 1.20001
252 1 8.17337 7.4187 3.96936 0 -0.632217 -1.0277 -1.26671
268 1 5.77902 7.95217 2.23406 0 0.0662246 -0.573268 -1.65148
284 1 9.29485 6.23855 1.50975 0 0.707206 -0.0541181 -1.59917
296 1 10.035 5.69006 1.06069 0 0.985488 -0.660641 1.2856
337 1 9.39469 7.90242 5.10416 0 1.32145 -0.802396 -0.818731
338 1 8.691 8.27001 4.38872 0 -0.891604 -0.85664 1.23758
339 1 7.47148 8.46899 1.22508 0 -0.904081 0.0911414 1.4949
353 1 8.9947 8.69951 2.53444 0 0.680944 -1.15013 1.12868
361 1 5.89158 6.4856 2.29989 0 -1.27943 -0.96261 -0.704871
366 1 9.78173 7.15036 2.15617 0 -0.564662 1.11437 -1.22464
368 1 9.30591 6.51754 0.435546 0 1.29051 0.863206 -0.806144
378 1 10.1914 7.09589 3.97954 0 -0.647649 1.44639 0.740873
383 1 8.59449 7.18094 1.67604 0 -0.741183 0.787327 1.3752
413 1 9.60488 9.27023 3.42811 0 -1.17835 0.774016 -1.03575
415 1 6.80405 7.70689 1.97589 0 0.821688 1.53677 -0.153495
421 1 9.87904 9.58294 2.50089 0 0.644703 0.24978 -1.60697
422 1 6.10545 7.99279 3.25922 0 0.924585 -1.46822 0.223318
432 1 8.26442 8.06365 0.73888 0 -0.696319 0.950857 1.29283
451 1 8.54498 6.64781 3.3728 0 1.10631 -1.2521 -0.518391
461 1 5.84601 7.37544 4.11758 0 0.75904 0.284283 1.5503
472 1 5.53817 8.27986 0.824468 0 -0.996916 1.3323 -0.539931
484 1 6.73547 9.04189 3.73681 0 -0.631695 -0.664718 -1.4898
492 1 6.75352 7.21534 4.66784 0 1.32668 -0.766334 -0.844424
499 1 7.74628 9.93612 2.24331 0 0.1447 1.5973 -0.698628
513 1 5.48477 8.8456 1.78651 0 -1.47239 0.688705 0.646654
519 1 9.94673 8.1634 2.05155 0 1.41508 0.952523 0.388137
525 1 8.05643 5.65297 1.73122 0 -1.13192 -1.31266 -0.236852
539 1 9.13494 9.83627 1.16149 0 1.39978 0.251225 -1.01877
550 1 8.01248 7.05792 2.52128 0 -1.15706 -0.743131 1.08137
588 1 8.43587 6.10979 0.828007 0 1.20196 1.08065 0.669238
593 1 9.51778 6.58171 2.9787 0 1.27957 0.926954 -0.7509
596 1 6.99793 9.45586 4.61727 0 -1.0973 -0.976404 -0.950246
635 1 10.1456 10.0834 1.1037 0 0.495403 1.59016 0.535125
648 1 8.71009 6.24867 2.35428 0 1.13047 0.476161 -1.24728
659 1 8.98286 8.16771 1.5777 0 1.3664 -0.00246479 -1.0924
667 1 6.66633 6.31801 4.09232 0 0.723482 -1.05628 1.19216
693 1 5.58192 6.32086 4.21783 0 0.908888 0.879348 -1.20875
728 1 5.97755 7.22049 1.47733 0 1.73485 0.138005 -0.177883
729 1 6.93149 8.52086 5.18609 0 -1.10978 0.44756 1.27612
754 1 6.81896 8.14525 4.23389 0 -1.16122 0.821088 1.01871
758 1 8.58068 9.03047 0.742571 0 -0.324352 1.62487 -0.561244
760 1 7.07849 5.67143 2.04046 0 -1.10878 1.03584 0.870651
815 1 7.76304 8.57279 3.94373 0 -0.736472 0.393109 1.53736
816 1 6.5067 8.61864 0.17643 0 -0.504141 -1.54525 0.646867
841 1 9.39774 9.0911 4.41536 0 -0.32826 -0.0461033 -1.71771
845 1 8.34414 6.03634 4.30865 0 1.51826 -0.346109 0.797188
858 1 6.38222 6.3177 5.15377 0 0.365221 -1.68434 -0.300047
869 1 7.83868 5.92911 2.74963 0 1.49264 0.159588 -0.898302
883 1 6.09703 8.81227 4.54752 0 -0.99821 1.35661 -0.472864
892 1 9.17737 7.23813 4.2533 0 -0.875131 1.09765 -1.04389