ITEM: TIMESTEP
100000
ITEM: NUMBER OF ATOMS
1002
ITEM: BOX BOUNDS pp pp pp
0.0000000000000000e+00 1.0346399999999999e+01
0.0000000000000000e+00 1.0346399999999999e+01
0.0000000000000000e+00 1.0346399999999999e+01
ITEM: ATOMS id type x y z q mux muy muz
860 1 3.69227 2.83137 0.665209 0 1.09735 1.229 0.588034
314 1 4.20718 1.88996 1.08055 0 -0.116161 1.40679 -1.03337
159 1 2.01947 4.63097 2.0645 0 -0.807098 1.45761 -0.533267
662 1 5.40593 0.0530514 2.47713 0 -0.393831 0.585863 -1.60064
364 1 2.35302 1.29528 0.971953 0 -1.109 -0.737984 1.13398
669 1 4.79781 0.105584 1.45092 0 -1.09802 1.06855 -0.844366
921 1 1.21047 3.97573 4.37838 0 0.748377 -1.51138 0.46481
813 1 5.0897 2.22844 3.08572 0 -0.713335 -0.640914 1.46314
88 1 4.98995 3.56557 0.622658 0 -0.387694 -0.26976 1.68444
422 1 3.23874 1.06629 1.51282 0 -1.74642 -0.0650369 0.0786098
700 1 2.2423 4.39601 4.27653 0 0.244954 1.69146 -0.37329
468 1 3.62185 2.49045 1.79364 0 -1.72987 -0.219023 0.141359
61 1 4.34183 2.79835 3.49682 0 -1.57049 -0.770385 -0.021623
687 1 4.29514 4.48301 2.5104 0 -1.26239 0.772473 0.932775
392 1 5.0658 3.75494 1.71756 0 1.47192 -0.906333 0.26912
376 1 2.45603 2.32461 1.44418 0 -1.65109 -0.0310382 0.577362
475 1 3.11317 3.28767 1.48557 0 -0.810414 1.19675 0.985601
983 1 2.33465 0.168354 3.71541 0 -0.481846 1.58921 0.550111
442 1 3.56904 3.63381 2.71529 0 -0.976173 -1.13241 0.908369
681 1 4.68229 4.3656 4.2057 0 1.16732 -0.942336 -0.899865
335 1 1.86603 3.65581 2.7465 0 -1.19935 0.611518 1.11714
742 1 3.15408 1.86708 0.830185 0 -0.697641 1.30393 0.93459
872 1 2.50788 0.4647 1.83418 0 -0.899038 -1.10244 1.01821
342 1 4.43352 1.13858 0.292503 0 -0.0213637 -1.70015 0.411604
326 1 2.80273 0.868396 2.80816 0 1.32696 -0.594457 0.972733
931 1 5.30966 4.12535 4.93846 0 1.7167 0.236225 -0.239899
41 1 1.72052 2.46294 2.19862 0 -1.52666 -0.0890137 0.849586
651 1 1.62947 1.96062 0.220119 0 -0.384567 0.622949 -1.58885
319 1 2.16536 5.14743 2.90493 0 0.561942 -1.39501 0.893631
318 1 2.48195 3.06204 2.26828 0 -1.52862 0.747541 0.406069
920 1 5.06059 3.33549 3.21632 0 -1.4792 -0.591686 0.722686
354 1 0.482614 3.61291 0.971758 0 -0.136029 0.651957 -1.61767
749 1 1.4628 4.49077 3.48157 0 -1.74481 0.0970137 -0.0813181
714 1 4.15246 0.628733 1.08884 0 -1.35394 1.10717 0.0375196
30 1 4.48753 2.92566 1.38221 0 -0.114461 -1.62998 0.624859
565 1 3.79145 3.97522 0.522781 0 -1.50428 0.0876585 0.888732
409 1 3.07587 3.81735 4.19532 0 0.423701 -0.888219 1.44636
582 1 0.542819 4.5498 5.34506 0 -1.46096 -0.457976 0.846319
584 1 1.95121 2.6844 3.27085 0 0.590474 -1.43692 0.804364
560 1 3.93989 3.80443 1.61266 0 1.29455 -1.15317 0.233949
586 1 0.58986 1.86641 1.17225 0 -1.09598 -0.123409 -1.35794
899 1 2.65955 4.34101 3.25717 0 -0.2583 -1.61977 0.608309
207 1 0.755828 2.88095 1.68018 0 -0.499195 1.19592 -1.17515
822 1 0.347692 3.53467 4.81134 0 -1.22858 0.930198 -0.828078
215 1 1.52559 1.7547 1.452 0 -0.920009 -0.953087 -1.14263
929 1 3.1412 0.099124 1.07996 0 -0.855706 0.694079 -1.35883
789 1 2.97755 3.15973 3.39201 0 -1.12171 -0.103034 1.33849
70 1 3.70405 0.229787 1.99855 0 -1.34272 -0.183027 -1.10635
556 1 1.46395 2.04591 4.0939 0 1.57299 -0.412716 0.644794
185 1 0.700654 3.82757 2.10519 0 1.17141 1.03234 -0.788979
680 1 4.03184 1.48953 2.18318 0 -0.242179 -0.25542 -1.71362
708 1 1.61917 0.664554 1.21066 0 0.422035 -0.842387 -1.474
837 1 4.7975 4.93701 1.7276 0 1.21244 -0.590429 -1.11435
269 1 4.48098 3.31665 2.4675 0 0.411635 1.6685 -0.327232
16 1 2.90996 2.17149 2.41477 0 -0.468539 1.32 1.04808
407 1 4.72875 2.3868 2.14569 0 0.0373733 0.470725 1.68446
14 1 0.7479 3.82431 3.10889 0 -1.2583 -1.05702 0.599833
585 1 1.14561 2.98313 3.82603 0 0.356588 -0.91867 -1.44544
102 1 1.69648 3.13196 0.947675 0 -1.23835 0.933864 0.809189
209 1 1.0578 1.07171 0.533101 0 1.12955 0.228974 -1.31609
325 1 4.49226 0.658189 2.3931 0 -0.525667 1.23134 1.126
399 1 0.634866 0.274512 2.68748 0 0.563798 -1.30351 1.02146
488 1 0.463025 4.68987 3.70954 0 -1.04659 1.19843 -0.727189
856 1 0.0564734 0.96177 0.733105 0 0.710603 -1.10986 1.1505
604 1 2.0399 3.48181 3.98438 0 -0.142204 1.32598 1.13224
99 1 4.05323 4.17801 3.45504 0 -0.711789 -1.59699 0.0580001
909 1 2.41538 1.44601 1.97609 0 1.54947 -0.115464 0.803879
522 1 0.668255 0.825623 1.7315 0 -1.633 0.241082 0.579297
437 1 3.27268 0.575717 3.85907 0 -0.881347 0.520498 1.4187
849 1 1.08035 0.297349 3.78285 0 -0.14644 -1.62868 0.621579
521 1 3.04667 1.6149 3.59264 0 1.41741 -0.42431 0.933439
39 1 2.65811 0.21139 4.85256 0 -1.66359 -0.0988797 0.532069
31 1 1.66118 0.0358816 4.72356 0 -1.14142 -1.15933 -0.643049
146 1 3.35012 4.74981 4.10279 0 -0.799351 -1.51332 0.362355
164 1 3.3489 4.41196 2.13104 0 -0.817865 -1.45018 -0.53711
52 1 3.30421 2.5135 4.29697 0 0.982562 0.264161 1.42309
291 1 0.896481 2.65441 0.445948 0 0.223796 -0.021802 -1.73489
512 1 2.09426 1.70779 3.36799 0 1.62447 -0.385815 -0.522156
848 1 4.62208 4.58325 0.543239 0 -0.545245 -1.63432 -0.303497
18 1 4.9016 1.43433 1.6695 0 -1.63501 0.554303 -0.282625
259 1 5.0864 0.305068 0.383423 0 -1.22547 -0.779281 -0.975364
195 1 5.07872 1.14927 3.56882 0 -0.621159 1.37967 -0.878102
1002 3 4.96416 5.30053 4.75971 13.626 0 0 0
563 1 2.8232 4.36778 1.28226 0 -0.566161 1.15249 -1.18812
199 1 1.67781 4.69845 5.28384 0 -0.680389 -0.323504 -1.57887
491 1 1.07658 4.73212 2.45045 0 0.318281 1.61313 -0.597429
881 1 1.76064 3.71958 1.71621 0 1.10788 1.161 0.69648
404 1 3.64336 4.88907 1.27689 0 0.0439483 -0.723652 1.5921
842 1 2.40634 5.40692 3.89546 0 -0.106612 0.934371 -1.47512
80 1 2.75241 3.72485 0.336052 0 -1.7037 -0.378426 -0.120839
597 1 2.33903 0.293167 0.429694 0 -0.382282 -0.669198 -1.57049
843 1 1.73152 0.807195 3.25146 0 -0.712923 1.2095 -1.04367
171 1 1.13513 4.65992 1.25137 0 1.06323 -0.133213 -1.38282
460 1 2.38341 1.12564 4.36303 0 -0.602806 1.05351 -1.25982
686 1 1.43418 1.4436 2.48315 0 0.622813 1.16109 -1.15082
965 1 1.45455 1.09578 4.24786 0 -0.591271 -1.52704 -0.615597
941 1 2.46252 2.0873 4.47159 0 1.73217 0.0335604 -0.242636
216 1 0.717696 4.37593 0.35215 0 -1.02267 0.948518 -1.05587
666 1 3.25075 0.980727 0.328634 0 -0.23573 1.69226 0.3756
472 1 3.38718 1.28321 4.55372 0 0.325929 0.77223 1.53552
772 1 3.80073 2.36418 2.77742 0 0.00268176 -1.14428 -1.32326
852 1 2.48508 2.7758 0.383657 0 -1.26539 0.0832952 1.20509
739 1 3.6066 4.32395 4.99655 0 0.831619 -1.44305 0.535167
705 1 0.492957 1.22103 3.05465 0 0.471009 -1.53112 -0.703001
104 1 5.15142 0.794451 4.54112 0 1.28159 0.641621 -1.00312
128 1 4.06462 3.44423 4.18513 0 -0.0242051 -0.580714 1.65003
278 1 3.80079 0.779325 3.10871 0 -0.370961 -1.36742 1.02613
490 1 4.31056 1.60358 3.09132 0 -1.53373 -0.513024 -0.666992
523 1 0.845405 2.17984 3.23729 0 0.185388 -1.64995 -0.551099
307 1 0.559881 1.88817 2.19469 0 -0.0694142 1.4473 -0.980251
327 1 5.26697 4.29205 2.70604 0 -0.680187 -0.623775 -1.48615
706 1 0.0940809 3.10283 2.47664 0 1.07098 -0.588828 -1.25167
888 1 4.59684 2.14031 0.223661 0 0.741554 -1.58445 -0.00265803
942 1 0.0348692 1.92623 0.00648745 0 -0.98757 0.798938 1.20283
654 1 0.168365 4.60456 2.77177 0 1.16271 -1.09634 -0.711726
661 1 0.527603 2.27115 4.26955 0 1.69854 0.284213 -0.30754
603 1 0.105886 4.46526 1.45386 0 1.47323 0.942535 0.0401857
736 1 5.36131 5.45105 2.80612 0 -0.869667 -1.29691 0.788743
115 1 0.183854 2.97348 3.52128 0 -0.438777 -0.8349 -1.47337
515 1 5.13846 2.20676 4.45906 0 1.52856 -0.8505 -0.0237128
232 1 4.13157 2.36747 4.84717 0 1.38481 -0.396508 0.992713
134 1 0.083185 0.311623 4.34137 0 -0.404146 1.69204 -0.184555
447 1 1.51694 0.242202 2.18915 0 -1.09997 0.578517 -1.23117
613 1 5.07684 0.100515 3.52461 0 1.33398 1.12644 -0.109709
71 1 3.1678 4.81989 0.350567 0 1.47904 0.391322 0.84835
525 1 1.16703 4.9607 4.43564 0 -1.56269 -0.76369 0.187523
105 1 0.213147 5.36976 1.78594 0 -1.06154 -0.991143 0.975275
377 1 3.47583 4.9577 3.02476 0 -1.30419 -0.880333 -0.76453
841 1 0.123135 0.0296788 1.11154 0 0.786094 -1.43447 -0.620278
539 1 4.08253 5.21095 4.49444 0 -1.52686 -0.45618 -0.721807
737 1 1.87078 5.24231 1.02246 0 -0.65518 1.60273 -0.249795
569 1 4.55843 5.18088 3.46924 0 -0.701486 -1.54023 0.44272
926 1 4.22606 0.699929 4.21677 0 0.793885 1.45908 0.548835
809 1 3.51603 0.169064 5.42844 0 -1.52769 -0.204534 -0.827481
933 1 1.14134 3.64632 5.40104 0 -1.37441 -0.854944 -0.663669
2 1 2.4318 3.13517 4.93135 0 -1.346 0.978682 -0.53933
886 1 1.601 0.906699 5.20543 0 0.439794 -1.54568 -0.691275
82 1 4.62944 1.63574 5.35158 0 0.0681471 -0.917377 1.48801
462 1 4.44196 3.76863 5.05409 0 1.29237 1.16122 -0.204285
857 1 0.41302 1.19465 4.51752 0 -1.10163 1.15274 -0.719711
994 1 2.58691 4.14092 5.19766 0 0.0300901 1.52972 0.848196
24 1 3.44284 3.15864 5.13344 0 -0.831877 -0.982132 1.18482
9 1 2.79851 1.08248 5.29137 0 -1.41331 -1.02866 0.0692901
25 1 0.736517 0.362789 5.18497 0 -1.24732 0.696341 -1.0098
238 1 1.13328 1.75993 5.07339 0 -0.0752197 -1.63184 0.625979
157 1 1.44333 2.74462 4.99065 0 0.643111 -1.6201 0.148582
148 1 4.33223 1.73487 4.11979 0 0.298663 1.38854 1.02135
640 1 3.30248 2.12912 5.31901 0 0.473221 -1.14446 1.23559
21 1 4.64316 0.324081 5.41193 0 -0.232752 0.84677 -1.51301
263 1 5.39258 2.8433 5.29762 0 0.949445 -1.00645 -1.07052
547 1 1.86252 4.14859 0.591215 0 -0.69453 1.45323 -0.682761
19 1 5.1797 3.35156 4.22855 0 0.131694 -1.68313 0.458403
35 1 0.387502 2.59774 5.29666 0 0.168819 0.579687 -1.64191
206 1 2.64736 5.29484 5.09501 0 0.439872 1.6753 0.245503
953 1 5.71832 0.128939 1.04147 0 -1.36729 0.36571 -1.02819
464 1 5.91768 4.53635 1.15157 0 0.89302 -1.07079 1.05656
427 1 5.96599 3.20624 2.9492 0 -0.967693 1.20048 -0.826326
716 1 10.2932 4.88313 0.50544 0 -0.0616869 1.67283 -0.508181
260 1 10.0738 3.44321 1.56935 0 0.242945 1.66683 -0.472274
726 1 10.1684 1.05412 3.68259 0 -0.564531 -0.627037 -1.53249
906 1 10.0796 2.18945 1.73087 0 -1.37959 1.05983 -0.184133
824 1 5.48484 4.99143 4.00247 0 1.21022 1.12833 -0.568015
226 1 5.81102 2.81565 0.638907 0 -0.482199 -1.23596 -1.1403
704 1 10.216 2.72258 0.616029 0 -0.129954 1.10707 1.3483
94 1 9.21486 2.16685 1.29142 0 -0.293854 -1.51241 -0.828657
890 1 9.94734 5.18212 3.67707 0 -1.73147 -0.14507 0.20343
457 1 9.70639 4.27964 2.28574 0 0.800193 0.95177 -1.23054
343 1 9.86242 0.911132 1.61964 0 0.540551 -0.377518 -1.6204
23 1 8.25166 0.628 1.62419 0 1.03871 0.820142 1.14405
889 1 5.50866 1.37635 2.56287 0 -0.90156 0.323482 -1.46388
37 1 5.98589 3.83482 1.93595 0 1.7308 0.251771 -0.0366139
943 1 5.54677 2.84537 1.93379 0 1.44014 -0.766084 -0.632072
911 1 6.09017 4.94665 3.03736 0 0.634097 -1.29373 -0.992266
333 1 5.84287 4.00799 3.71029 0 -1.10147 -0.982119 -0.939467
641 1 6.58221 2.92654 2.13105 0 1.57387 -0.646644 -0.406424
173 1 7.74697 3.80733 3.3349 0 1.73681 0.0548208 -0.202233
439 1 5.62701 1.1178 0.140596 0 -0.0873258 1.26739 1.2027
790 1 7.02839 0.401074 4.96057 0 -0.145048 -0.379835 1.7015
643 1 6.93107 1.00544 4.13375 0 0.546749 -1.5654 -0.557654
77 1 6.8196 3.92287 2.54557 0 0.0952785 -1.53885 0.826591
381 1 6.35854 2.29851 2.99972 0 -1.19343 1.21893 -0.387729
140 1 8.7394 3.74285 2.90994 0 1.10133 0.817416 -1.08596
142 1 6.83829 2.04361 3.75679 0 0.598311 -0.194547 -1.63235
84 1 5.52541 1.8359 0.870343 0 0.00938875 -0.41428 1.69961
1 1 8.51271 5.29778 1.35464 0 -1.23074 1.19192 0.353551
575 1 5.81553 5.01844 2.04629 0 -0.478875 1.05556 -1.3103
912 1 7.51613 3.01126 1.48278 0 0.38927 1.18357 1.22802
589 1 7.82433 3.78839 2.04758 0 1.08286 1.37141 -0.083893
265 1 6.44543 1.06549 0.816208 0 1.03661 -1.36609 0.345894
245 1 8.14433 2.80335 0.697331 0 0.56796 -1.64552 -0.173468
594 1 6.04695 1.21892 4.53199 0 1.20773 0.671218 -1.07296
930 1 6.823 4.11398 1.41848 0 1.55131 -0.3136 0.745323
163 1 6.53846 3.15479 1.19633 0 0.254855 -0.652987 -1.60283
671 1 6.75161 2.20722 0.791894 0 0.944872 0.355771 -1.42865
254 1 7.47952 3.08869 2.73434 0 1.51608 -0.759937 0.429428
48 1 9.93507 1.05996 2.56712 0 -0.182039 -1.16528 -1.29205
481 1 7.57238 5.24393 4.08074 0 1.60603 0.371255 0.585862
527 1 8.16055 0.896827 2.67925 0 -0.0738302 0.827035 1.53979
247 1 7.61866 0.184527 0.431211 0 -1.0779 -0.0867493 -1.37514
552 1 6.94413 5.0522 2.40509 0 0.378756 -0.718463 1.54944
369 1 8.39952 2.68913 2.21589 0 0.563327 0.165312 -1.64795
509 1 8.59244 0.708626 3.99689 0 0.785632 1.38843 0.717935
180 1 7.22192 4.67635 3.25538 0 1.47939 -0.0682917 0.931211
802 1 9.24844 4.61045 0.197891 0 -0.117556 1.64066 0.595677
619 1 7.25542 3.27648 0.497113 0 1.72342 0.153487 0.258176
191 1 7.49349 1.01953 1.10045 0 0.0128677 0.131387 1.74441
449 1 8.31303 1.59389 1.80195 0 -0.92297 1.48356 -0.0869653
780 1 9.13885 1.74191 2.25362 0 -0.0497937 -1.44227 -0.988822
657 1 9.4049 1.40033 0.604528 0 -0.126691 -0.887598 -1.50217
553 1 8.19837 1.93969 2.87238 0 1.63747 0.451841 -0.418231
186 1 6.91323 4.34953 4.21239 0 -1.0641 1.04683 -0.912269
821 1 9.35054 4.70162 3.10803 0 0.329893 -0.88289 -1.4738
32 1 7.24403 1.61653 2.65698 0 0.420193 1.59625 0.5795
400 1 8.37601 1.76967 0.716843 0 0.406077 -1.65484 -0.396237
777 1 8.4982 0.790688 0.436876 0 -0.31365 -1.71917 -0.0804966
394 1 8.88577 3.519 1.77903 0 1.52471 0.483216 0.708625
416 1 8.94036 4.35404 1.25525 0 -1.11747 1.24016 0.523112
697 1 7.74873 4.67585 1.48057 0 -0.718253 1.59514 -0.00612779
410 1 8.61625 4.50701 2.27282 0 -0.276686 1.55976 0.742284
526 1 10.0105 2.94298 4.56377 0 1.51557 -0.499293 -0.717053
833 1 7.08581 3.06434 3.71401 0 0.773784 1.54706 -0.261287
896 1 8.01606 3.94003 0.465497 0 1.68508 0.0881824 0.46167
620 1 9.40086 2.74951 2.51718 0 -0.152734 -1.73619 0.150708
253 1 6.38545 3.53345 0.0589967 0 1.38982 -0.600455 0.876506
504 1 9.02252 0.679334 2.32473 0 1.01169 0.297515 1.39584
96 1 9.4653 1.13261 4.48646 0 1.21048 -0.617341 1.10183
934 1 8.34971 2.92134 3.39904 0 1.739 0.0456698 0.184874
901 1 6.23966 1.90765 1.61983 0 1.71513 0.0389251 -0.342356
310 1 6.1296 0.820035 3.24018 0 -1.21842 0.894679 -0.880564
711 1 7.01954 0.893188 1.93188 0 0.458711 0.413386 1.63679
211 1 7.27744 2.01765 1.61862 0 -0.427682 0.582904 -1.59302
274 1 8.27726 1.07136 4.95895 0 -0.983699 0.444185 1.37675
156 1 9.07461 3.29316 0.621217 0 1.17169 1.01702 0.808226
904 1 9.03561 1.67552 3.24205 0 1.48207 -0.431046 -0.823447
202 1 6.41836 0.345006 0.177245 0 -0.161408 -1.54937 0.796123
891 1 9.27697 0.385174 0.971068 0 -0.266468 -1.37347 -1.05022
300 1 7.66423 1.03568 3.51481 0 0.400917 0.94871 1.41408
561 1 7.28521 0.408981 2.86164 0 -0.268543 0.355536 1.69171
588 1 8.2375 1.74508 3.9153 0 1.17376 1.29674 0.0340513
945 1 9.11448 2.64307 3.87496 0 0.796338 -0.742248 1.36942
256 1 6.08165 2.84633 3.89372 0 1.56953 0.63119 -0.445625
885 1 10.0645 2.08077 2.98639 0 1.1914 -1.20746 -0.427791
631 1 9.72314 3.46936 3.17439 0 -0.615091 -1.04 -1.2651
47 1 9.31185 0.637698 3.32643 0 0.0572594 -1.41115 1.03236
593 1 9.54189 5.23676 1.64513 0 -0.410873 1.05948 -1.33007
531 1 9.23225 5.39673 4.48779 0 -1.17078 -0.404546 1.23532
532 1 8.34618 3.83146 4.29189 0 0.31832 1.71855 0.075308
284 1 8.38769 4.64354 3.32003 0 1.26771 0.20643 1.18773
50 1 6.98891 4.41693 0.274046 0 1.62581 -0.396244 0.510036
658 1 5.81284 1.89479 3.75546 0 1.57432 0.133756 -0.751017
846 1 10.0571 4.09642 3.86956 0 1.37021 -0.889954 -0.625229
600 1 9.17079 4.33417 3.95958 0 0.974978 -0.440869 -1.384
634 1 9.85981 2.03661 3.95052 0 0.281354 -1.4156 -0.988593
557 1 8.80211 2.12951 4.83324 0 -1.21118 -1.23862 -0.243455
964 1 6.7011 5.42553 4.48378 0 0.980526 -1.22114 -0.779608
778 1 7.34219 3.41127 4.67045 0 1.70295 -0.318249 -0.243087
832 1 8.97729 3.21884 5.0006 0 -0.378462 -1.6404 -0.475667
984 1 6.29719 2.47391 4.84838 0 1.65286 -0.444883 -0.36128
788 1 5.58486 1.72505 5.31133 0 0.867701 -0.129372 1.51353
229 1 6.37024 3.73541 4.85779 0 0.777235 -0.808634 -1.34254
221 1 7.27115 2.52833 5.23019 0 1.50434 0.175273 -0.875577
724 1 8.00579 2.64465 4.41639 0 -0.2764 1.72327 0.119724
349 1 9.87898 0.00683105 0.288428 0 1.65467 -0.442062 -0.356429
529 1 6.69035 0.191855 1.20663 0 0.26851 0.480761 1.66047
95 1 5.88106 0.910844 1.642 0 -0.0474465 1.61898 -0.661103
161 1 9.72127 0.0207534 2.51008 0 0.508737 -1.595 0.507496
981 1 5.74462 5.36153 0.591797 0 0.0115126 -1.62469 0.648574
7 1 7.83852 5.42544 2.86314 0 1.20408 0.238846 -1.24642
540 1 8.26716 5.22094 5.35121 0 0.975058 0.675658 -1.28575
996 1 5.93066 0.260525 4.01655 0 1.66721 0.438284 0.297872
974 1 5.94667 0.073735 5.15683 0 -0.0547941 1.36735 1.08984
871 1 10.0659 5.06973 5.06206 0 0.659238 0.977138 -1.29267
731 1 8.98325 4.54666 4.98549 0 -0.519841 -1.59915 0.482597
249 1 9.92699 3.91822 0.601112 0 -0.871202 1.51348 -0.103825
330 1 7.46806 1.76149 4.5584 0 0.299331 -0.517026 -1.64423
467 1 9.90925 4.12598 4.8157 0 -1.31471 0.0311286 -1.15367
502 1 9.94696 0.541349 5.19623 0 -0.740614 -0.796213 1.37038
973 1 7.40807 1.20453 0.0940576 0 0.79679 -0.214717 1.54254
835 1 7.98447 3.16515 5.37411 0 0.552683 0.0066246 1.65979
426 1 6.56386 1.2108 5.3378 0 -1.71901 -0.30177 -0.119686
667 1 9.24342 2.29124 0.241624 0 0.823885 0.946037 1.21927
184 1 10.1301 1.74094 4.9228 0 -0.67828 1.50043 0.590792
200 1 7.75276 4.37917 5.06306 0 -1.69016 0.443865 0.0821068
980 1 6.26522 4.76454 5.09322 0 -1.67649 -0.49667 0.0555826
430 1 4.46193 10.0049 2.39284 0 -0.100991 1.50722 -0.882315
388 1 2.66289 5.47471 2.05659 0 -1.05328 -0.128561 1.39085
567 1 3.82425 10.3064 0.183911 0 -1.10609 0.538848 -1.24362
100 1 0.752742 9.46476 0.56928 0 -0.295263 -1.69959 0.29091
903 1 1.36111 10.2885 0.30186 0 -0.879412 -1.31628 0.744616
266 1 5.08583 9.42595 1.55553 0 -1.41836 0.294605 -0.980744
255 1 0.90304 5.65315 1.03449 0 -1.42408 0.570041 0.841102
135 1 5.07107 5.91514 3.91734 0 0.680078 0.345509 -1.57433
902 1 1.26032 5.74836 2.92021 0 0.642627 0.988222 1.29261
541 1 0.389641 5.7298 4.36515 0 0.768977 1.26985 0.925507
815 1 1.71026 5.69578 1.91446 0 -1.41057 0.942965 0.426026
925 1 3.38352 5.88346 0.287467 0 0.768946 1.56062 -0.183311
293 1 3.47003 8.97085 0.133829 0 0.221355 -0.698775 -1.58843
916 1 2.12399 9.92974 1.2245 0 0.755709 -0.435761 -1.51638
839 1 1.71151 9.98033 3.08751 0 0.703635 0.383356 -1.5551
907 1 1.81753 9.25718 5.25811 0 -1.11081 1.01983 0.886815
83 1 4.09553 10.0819 4.40504 0 -1.69354 0.438433 -0.00914735
533 1 3.09288 9.61882 4.0093 0 -1.73073 0.0932161 -0.237222
355 1 0.243775 6.14271 3.43588 0 0.204641 0.264933 1.71707
64 1 3.46343 5.92767 5.0451 0 0.0871787 1.03518 -1.40755
513 1 2.06796 6.63293 2.55489 0 1.41033 0.916634 -0.480785
999 1 3.46711 5.73882 3.73491 0 -0.760357 -1.57551 -0.00359614
302 1 2.51741 6.27174 3.46471 0 0.163546 1.47587 -0.924918
285 1 4.31409 5.61977 0.775088 0 -1.30319 -1.06154 0.485009
717 1 4.61657 6.56815 1.07422 0 1.39313 -0.928208 0.507965
62 1 2.56982 5.92265 1.09909 0 1.33345 1.12878 -0.0903216
1000 1 0.583486 6.45107 2.52554 0 -1.24118 -1.12488 0.504487
230 1 0.423893 7.14812 3.42818 0 1.41938 0.484545 -0.900542
500 1 0.910198 7.90011 1.21349 0 1.0385 -1.26483 -0.61816
919 1 3.75225 5.51058 2.10256 0 -0.179233 -1.63755 0.588821
997 1 3.67535 6.30078 1.31264 0 1.55635 -0.798756 0.013313
938 1 4.05057 7.45506 4.23553 0 0.483142 1.56499 0.614649
17 1 5.05388 9.34869 3.70941 0 -0.593578 -0.740182 -1.46976
130 1 4.13519 7.78211 2.99388 0 -1.2279 0.0604578 -1.24459
448 1 1.80408 8.53213 1.77672 0 -1.45808 0.907005 -0.334293
494 1 5.22857 7.83131 0.730795 0 -1.44469 0.986374 -0.0186083
900 1 3.87259 6.56913 2.29408 0 0.122243 -0.783897 1.55915
738 1 2.15499 9.73705 0.190166 0 -0.925409 -1.02727 -1.07179
805 1 4.39607 8.04784 0.268914 0 -0.968679 -0.869134 -1.16905
951 1 2.93186 6.62905 1.96044 0 1.72467 0.227611 -0.184701
172 1 3.21163 7.76494 3.76993 0 1.01825 1.41894 0.100793
489 1 3.77113 6.83335 3.33836 0 -1.14097 -0.864004 1.00602
118 1 2.77413 8.65711 1.77381 0 -1.03539 -1.13854 -0.831921
33 1 5.29831 7.5058 2.9592 0 -0.393183 1.68239 0.274552
796 1 0.995985 7.55638 4.46852 0 0.524084 1.26183 -1.09248
34 1 3.84232 8.7913 2.00261 0 -0.780161 0.718095 -1.39143
60 1 1.7182 7.31435 0.787337 0 1.44919 -0.185479 -0.96221
402 1 2.13044 8.67296 0.098196 0 -0.936135 -0.888274 -1.18111
360 1 3.58231 8.15405 0.937759 0 -0.637073 1.36577 -0.888377
678 1 5.20127 8.85226 0.656808 0 -1.31647 -0.0865096 -1.14883
546 1 2.53616 8.01755 0.840733 0 0.163462 -0.675321 -1.6055
141 1 3.19617 7.96491 0.0502958 0 -0.499533 -1.35293 -0.990174
751 1 3.96016 7.18901 0.546838 0 0.308488 -0.816112 1.51631
49 1 3.34928 8.7325 3.34865 0 -0.208399 0.839993 -1.52032
699 1 2.50088 9.26309 2.97154 0 0.491396 -0.364686 -1.63888
391 1 2.95984 9.57486 2.05059 0 0.683805 0.648833 -1.47371
882 1 2.92143 8.27472 2.59973 0 -0.101791 0.750699 -1.57686
744 1 2.68707 9.03101 4.70872 0 -1.40499 0.656949 -0.809205
828 1 3.73913 9.60073 1.26216 0 -0.269931 0.641632 -1.60494
638 1 3.59085 7.53872 1.90024 0 1.65833 -0.432549 -0.351073
268 1 2.7904 6.98625 0.950611 0 1.10603 -0.453055 -1.27743
384 1 2.13377 8.28201 3.51472 0 0.193897 1.73793 0.0489589
690 1 2.54347 7.63779 1.89593 0 0.19346 0.108362 -1.73529
367 1 3.00741 7.20593 2.814 0 0.289171 1.72445 -0.0550983
486 1 4.32093 9.01197 2.94136 0 0.453013 0.745347 -1.51646
688 1 3.15049 6.7162 4.1293 0 -1.09967 1.27596 0.472292
660 1 1.71295 9.04659 0.937094 0 0.0769785 -1.07474 -1.37819
879 1 3.13151 10.202 2.88177 0 1.16468 -0.671225 1.11954
755 1 1.21059 7.05875 2.02826 0 -0.16985 0.463856 1.67821
893 1 2.33638 7.28268 3.64343 0 0.857985 1.35498 -0.698774
679 1 0.725855 8.84837 1.43435 0 -0.683582 -1.61007 0.0279908
735 1 1.43515 6.99002 3.29674 0 1.57486 -0.756437 -0.0894869
66 1 2.83299 9.21483 0.952068 0 0.685501 -1.09628 -1.17841
45 1 1.91217 7.68362 2.72031 0 0.369936 1.38618 -1.00102
151 1 2.4311 6.14546 4.62444 0 -1.11825 0.254804 -1.32098
339 1 0.775074 5.57793 5.36798 0 0.162747 1.55579 -0.78322
483 1 4.01275 10.1864 3.39593 0 1.60744 -0.0393102 0.689205
162 1 0.613314 6.62868 4.37525 0 0.593048 1.64578 -0.0107581
111 1 0.871905 8.59224 4.54609 0 -0.362835 -0.649174 -1.58345
204 1 0.809045 9.02335 2.34399 0 -0.534606 0.757274 -1.48362
957 1 0.865358 6.69017 1.11251 0 1.28903 1.12458 0.366231
458 1 0.690994 7.87156 2.44223 0 -1.63027 0.477084 -0.418331
616 1 1.83525 9.50939 2.12167 0 0.844283 0.554406 -1.42836
732 1 1.68642 6.1666 0.52744 0 -0.392061 -0.0581619 1.70391
764 1 3.93177 8.99369 4.13901 0 -0.722961 1.24448 -0.994479
220 1 4.31438 5.95213 2.91133 0 0.660025 -1.48234 0.653784
133 1 1.17108 9.71188 4.13169 0 -0.900127 -1.43359 -0.441567
297 1 1.30449 5.98236 3.85346 0 -0.477425 -0.0502698 1.68224
280 1 1.26318 8.15626 0.286001 0 -0.956777 -1.45408 -0.175022
196 1 4.77857 8.13914 3.72663 0 0.548369 0.351469 -1.62363
950 1 4.72497 6.0029 1.99234 0 -0.620687 0.941193 1.33765
276 1 4.57288 7.56727 1.43889 0 0.104101 -1.38541 1.0631
305 1 4.67617 9.72861 0.523825 0 -1.20252 -1.06486 -0.693125
90 1 4.96138 7.03334 2.1147 0 1.07627 0.874244 1.06664
583 1 0.852525 9.96133 1.74385 0 1.36502 -1.08666 0.127646
975 1 0.746279 9.75756 3.16033 0 -0.139568 -1.30908 -1.15205
562 1 4.74769 6.80886 3.37318 0 -1.34302 1.00087 -0.504924
110 1 1.84984 6.51162 1.42333 0 0.305474 1.39829 1.00592
85 1 2.42691 5.54313 0.0628689 0 1.47481 0.724711 0.600106
10 1 1.42212 8.90192 3.0727 0 -0.548781 0.534549 -1.57274
320 1 1.84287 8.3207 4.92009 0 -0.117138 1.36335 1.08994
242 1 2.13678 9.5183 3.94206 0 -0.753441 0.667479 -1.4308
38 1 5.2961 7.88286 4.44876 0 -1.23301 1.13972 -0.491034
880 1 1.01784 8.13278 3.60138 0 0.0539497 0.994217 -1.43841
733 1 0.507361 7.32845 0.535006 0 -1.66531 0.263836 -0.466388
296 1 4.79049 8.80628 4.59747 0 0.975222 0.850024 -1.17763
258 1 5.13374 9.84877 4.60704 0 -0.419224 1.09508 -1.29825
476 1 0.443716 9.04684 3.79683 0 -1.43215 -0.996556 0.127412
393 1 5.38374 9.42539 2.74398 0 1.18245 0.782125 -1.02493
112 1 4.87066 7.06711 0.11599 0 0.544054 0.974409 1.34719
806 1 4.72681 8.24056 2.20334 0 0.359865 1.35216 -1.05003
867 1 0.201122 7.10993 1.80429 0 1.09662 -0.626257 -1.21063
959 1 0.372333 8.65924 0.248055 0 -0.397031 -1.60932 -0.559334
650 1 4.46273 8.47706 1.22216 0 -0.412897 -1.65888 -0.371521
723 1 0.637214 5.52399 0.122327 0 1.47542 0.839723 0.422375
166 1 4.55577 6.15222 5.25523 0 -0.320685 1.39499 -1.00577
960 1 3.58576 9.13272 5.16358 0 -1.46552 0.106543 -0.949371
887 1 4.09676 6.39229 4.41957 0 -0.515148 0.736637 -1.5008
137 1 4.02621 8.20828 4.88013 0 0.759625 1.43207 -0.657678
178 1 0.0121256 6.2747 0.0140988 0 -1.48103 -0.662147 0.6546
677 1 3.03617 8.07703 5.03287 0 1.67146 -0.193295 -0.478793
647 1 1.46365 6.29515 4.89463 0 -0.509645 1.09342 1.26693
626 1 0.474433 6.53896 5.33228 0 -1.57648 0.754608 -0.0752633
67 1 5.09532 6.85478 4.66434 0 0.0375088 1.74747 -0.073178
962 1 4.08681 7.1005 5.2275 0 0.220041 1.58931 0.697198
379 1 2.28226 7.26782 4.65544 0 -0.928244 1.42735 0.401785
313 1 0.76752 8.05038 5.34503 0 0.233925 -0.178314 -1.7245
854 1 4.87639 8.05923 5.43872 0 -0.375627 -0.270962 1.68697
760 1 0.636085 9.14798 5.42062 0 0.222447 -1.13484 -1.31265
875 1 10.01 10.2237 3.45748 0 -0.409744 -1.63516 0.467715
766 1 9.31584 10.3306 4.34148 0 -0.380738 -1.47686 0.856921
861 1 5.95079 9.76211 1.71201 0 -1.20245 1.08924 -0.654277
712 1 6.79992 9.71723 5.4165 0 0.237012 0.777042 1.54933
779 1 7.58454 10.0066 1.49324 0 1.34318 1.11255 0.135974
770 1 9.34733 10.0787 5.31158 0 -0.364711 -0.797752 1.5136
132 1 6.84037 9.83489 0.503915 0 -0.957474 -0.151711 1.45624
484 1 9.01916 9.30705 1.26101 0 0.241821 1.19883 1.2509
225 1 6.29748 9.81155 4.48992 0 -1.02999 0.918922 1.07475
922 1 8.02756 10.068 5.37585 0 0.411131 1.61828 0.522045
390 1 7.588 5.60791 0.812665 0 -0.0322536 1.47401 -0.941617
334 1 9.44063 5.54271 0.514214 0 -1.06696 1.38297 0.0968924
109 1 6.37178 9.05845 2.39044 0 -0.208162 1.4139 -1.00894
979 1 9.95008 9.59317 1.76625 0 0.989178 0.129326 -1.43708
905 1 10.047 5.56046 2.67838 0 1.59794 -0.156721 0.694571
352 1 10.107 7.93487 2.79617 0 -1.32846 -0.0237613 1.13799
947 1 10.1297 8.0146 0.921926 0 -0.0632334 -0.462325 1.68602
179 1 5.80546 6.85804 3.6706 0 -1.62808 0.638765 -0.0414718
818 1 9.34645 6.20212 3.32518 0 -0.501308 1.21809 1.15124
243 1 6.02513 7.12425 0.0580523 0 0.66661 -0.944787 -1.31279
397 1 5.6126 6.97308 1.18319 0 0.259916 0.175776 -1.72103
429 1 9.35317 9.48722 0.00259708 0 1.5773 0.56743 -0.500547
998 1 10.3461 9.94711 5.11417 0 -0.581817 -0.901909 -1.38147
672 1 6.33966 10.0082 3.22394 0 0.769095 1.53742 -0.324409
693 1 9.07445 9.86322 3.15304 0 -0.83271 -0.948291 -1.2115
811 1 8.0968 10.2735 2.49607 0 -0.374714 1.70797 -0.053187
543 1 10.2281 6.00864 1.11221 0 1.08592 0.64638 1.2097
635 1 8.23118 9.52623 0.0420403 0 0.837201 -0.478623 -1.45959
807 1 7.3658 8.39005 1.12113 0 -0.626429 1.56454 -0.469258
820 1 8.49774 10.0623 0.812172 0 -1.17659 -1.29054 -0.102648
949 1 7.32592 9.56717 3.13379 0 -0.452471 1.3216 -1.05311
977 1 8.93592 10.1493 1.8045 0 0.680152 1.49392 0.604982
150 1 7.47353 9.3466 4.16983 0 -1.04085 -1.39898 0.140992
995 1 5.66614 5.94415 1.63883 0 -1.23918 0.527745 1.11639
625 1 9.43752 7.22718 3.68504 0 0.433033 1.00451 1.36523
465 1 9.90775 9.05893 0.878427 0 -0.928596 -1.43759 -0.362539
53 1 9.94715 6.99186 0.850871 0 -1.54531 -0.572333 0.58725
836 1 9.21888 7.54031 2.76052 0 -1.66903 -0.336078 0.402237
182 1 10.077 9.2067 2.83331 0 -0.722362 -1.59318 -0.0193664
208 1 8.60753 5.58085 3.72047 0 1.74254 0.0460422 -0.147748
621 1 10.2055 8.30772 1.84354 0 -1.21378 -0.896687 0.884926
469 1 10.2022 8.26161 3.753 0 -1.71309 0.211966 0.284223
375 1 7.38264 6.7547 1.48497 0 -0.956262 -0.940656 1.123
510 1 9.83829 6.17083 4.19678 0 0.390288 -0.828329 -1.49062
455 1 5.56125 6.48774 2.77576 0 -1.19343 -0.97352 0.829689
497 1 6.73244 5.47209 0.161419 0 0.315382 -0.921011 -1.4535
587 1 5.79729 5.75811 4.56744 0 1.12904 1.31367 -0.244787
181 1 8.5044 6.67782 4.13995 0 -0.255702 1.69571 0.345819
725 1 9.63077 6.27303 1.98845 0 0.608708 -0.594216 1.52865
176 1 6.47141 6.30082 0.826324 0 -1.04975 -1.38155 -0.223039
572 1 7.29825 6.83684 0.416982 0 -1.42603 0.209244 0.991491
767 1 7.68672 7.09444 3.20241 0 -1.72382 0.12711 0.269626
555 1 9.62724 7.48988 1.85249 0 0.642607 -1.49142 0.650482
599 1 5.52441 6.27534 0.506334 0 -0.289619 -1.69655 -0.313422
892 1 5.80985 8.85678 4.19897 0 0.196222 1.52296 -0.838139
664 1 5.81514 8.60538 1.51413 0 -1.12492 0.851754 -1.03415
750 1 5.76249 7.70406 1.99066 0 0.854222 1.01893 -1.13688
54 1 5.95641 5.89155 3.5328 0 1.60346 -0.0928668 -0.693309
511 1 8.52846 6.27479 1.84825 0 -0.0678647 1.66158 0.543103
433 1 8.01272 7.65913 1.32345 0 -1.71828 0.327375 0.0274464
518 1 6.82054 5.52445 1.47009 0 0.672941 -0.144306 1.60833
976 1 6.1288 8.42238 0.451404 0 -0.124555 -0.609115 1.6352
579 1 6.01482 9.41002 0.703884 0 -1.4368 0.859199 -0.507733
301 1 5.68425 8.4239 3.05753 0 1.10153 1.24636 -0.541874
92 1 6.72543 9.07284 1.30768 0 -1.20097 0.834271 -0.960241
3 1 6.58945 8.10385 3.02213 0 -0.685274 -0.455719 -1.54374
69 1 6.28779 7.94634 4.18793 0 -1.70238 0.402553 0.0160876
864 1 7.35678 9.31672 2.19285 0 -0.789146 0.57251 -1.45254
826 1 8.03861 10.2607 3.62716 0 -0.764768 0.813367 1.34684
987 1 6.24872 5.84281 2.56054 0 -0.413625 -1.60466 0.560689
194 1 8.9543 8.19308 1.46079 0 -0.375177 -0.202188 1.69669
136 1 6.77037 8.97258 4.7356 0 -0.437431 1.68907 0.126864
251 1 7.8047 9.18775 0.966202 0 -0.418655 0.766934 -1.51557
246 1 7.21904 6.40361 2.46732 0 -1.0815 0.396222 1.31673
577 1 8.35362 6.4682 2.95443 0 -1.47165 0.716329 0.617681
97 1 6.64237 7.33207 1.15172 0 -0.297616 -1.05301 1.36491
57 1 6.8659 5.68375 3.35918 0 1.73505 -0.221741 0.0291085
304 1 8.21898 7.42243 0.28789 0 -1.19421 1.20354 0.430982
743 1 8.1437 8.65748 1.7611 0 -1.06349 -0.0266888 -1.38877
709 1 8.41292 7.1615 2.08044 0 -1.65148 0.57576 0.039045
564 1 6.78569 10.1048 2.21164 0 -0.231722 1.62602 -0.6023
382 1 8.21919 6.39115 0.605302 0 0.543919 1.55165 0.597429
395 1 9.16059 6.25963 1.00846 0 -0.130513 1.47338 0.93408
618 1 8.88199 7.17928 1.16712 0 -0.614124 1.5962 -0.367947
79 1 6.38074 6.79303 1.88051 0 -1.61874 -0.429175 0.505846
438 1 8.61309 9.35235 2.42184 0 -0.910175 1.14572 -0.958803
812 1 9.97675 6.83666 2.71556 0 -0.499223 0.798941 1.47407
601 1 6.7059 8.1837 1.93607 0 -0.53988 1.49217 -0.736446
549 1 8.82801 5.48325 2.40885 0 1.43438 0.958707 -0.289559
295 1 7.32916 7.88912 0.168029 0 -1.14993 1.16815 -0.611122