LAMMPS (3 Aug 2022)
OMP_NUM_THREADS environment is not set. Defaulting to 1 thread. (../comm.cpp:98)
  using 1 OpenMP thread(s) per MPI task
package gpu 0
package gpu 1
#=======================================
# Symmetric Ions in Stockmayer Fluid (water dipole)
#   Created by Chris Balzer (balzer@caltech.edu)
#   See README.md for description
#==================================

#======
# Parameters
#======
# Initialize the system set up
units		      lj
boundary	    p p p
atom_style	  hybrid dipole sphere
WARNING: Atom style hybrid defines both, per-type and per-atom masses; both must be set, but only per-atom masses will be used (../atom_vec_hybrid.cpp:133)
atom_modify   map yes

# Read in input data
read_data	    system.data
Reading data file ...
  orthogonal box = (0 0 0) to (10.3464 10.3464 10.3464)
  1 by 1 by 1 MPI processor grid
  reading atoms ...
  1002 atoms
  read_data CPU = 0.001 seconds

# Group atoms
group         solvent  type 1
1000 atoms in group solvent
group         ions     type 2 3
2 atoms in group ions
group         anion    type 2
1 atoms in group anion
group         cation   type 3
1 atoms in group cation
group2ndx     groups.ndx cation anion
Writing groups to index file groups.ndx:
 writing group cation...done
 writing group anion...done

# Set mass and diameter of spheres
set type      1 mass 1.0 # solvent
Setting atom values ...
  1000 settings made for mass
set type      2 mass 1.0 # anion
Setting atom values ...
  1 settings made for mass
set type      3 mass 1.0 # cation
Setting atom values ...
  1 settings made for mass
set type      1 diameter 1.0 # solvent
Setting atom values ...
  1000 settings made for diameter
set type      2 diameter 1.0 # anion
Setting atom values ...
  1 settings made for diameter
set type      3 diameter 1.0 # cation
Setting atom values ...
  1 settings made for diameter

# Set charge of ions
set type      2 charge -13.626 # anion
Setting atom values ...
  1 settings made for charge
set type      3 charge  13.626 # cation
Setting atom values ...
  1 settings made for charge

# Non-bonded interactions
pair_style	  lj/cut/dipole/long 1.12246204831 5.06974
pair_coeff	  1 1 1.0 1.0 # solvent
pair_coeff	  2 2 1.0 1.0 # anion
pair_coeff	  3 3 1.0 1.0 # cation
kspace_style  ewald/disp 1e-4
pair_modify   shift yes mix geometric

# Set dipole
set group solvent dipole/random 4321 1.7494
Setting atom values ...
  1000 settings made for dipole/random

# Neighbor settings
neighbor	    0.4 bin
neigh_modify every 1 delay 0 one 10000

# Temperature computation
compute tempSph all  temp/sphere

#####################################################
# Minimization
minimize 0.0 1.0e-8 100000 100000

CITE-CITE-CITE-CITE-CITE-CITE-CITE-CITE-CITE-CITE-CITE-CITE-CITE

Your simulation uses code contributions which should be cited:

- GPU package (short-range, long-range and three-body potentials):

@Article{Brown11,
 author = {W. M. Brown, P. Wang, S. J. Plimpton, A. N. Tharrington},
 title = {Implementing Molecular Dynamics on Hybrid High Performance Computers - Short Range Forces},
 journal = {Comp.~Phys.~Comm.},
 year =    2011,
 volume =  182,
 pages =   {898--911}
}

@Article{Brown12,
 author = {W. M. Brown, A. Kohlmeyer, S. J. Plimpton, A. N. Tharrington},
 title = {Implementing Molecular Dynamics on Hybrid High Performance Computers - Particle-Particle Particle-Mesh},
 journal = {Comp.~Phys.~Comm.},
 year =    2012,
 volume =  183,
 pages =   {449--459}
}

@Article{Brown13,
 author = {W. M. Brown, Y. Masako},
 title = {Implementing Molecular Dynamics on Hybrid High Performance Computers – Three-Body Potentials},
 journal = {Comp.~Phys.~Comm.},
 year =    2013,
 volume =  184,
 pages =   {2785--2793}
}

@Article{Trung15,
 author = {T. D. Nguyen, S. J. Plimpton},
 title = {Accelerating dissipative particle dynamics simulations for soft matter systems},
 journal = {Comput.~Mater.~Sci.},
 year =    2015,
 volume =  100,
 pages =   {173--180}
}

@Article{Trung17,
 author = {T. D. Nguyen},
 title = {GPU-accelerated Tersoff potentials for massively parallel Molecular Dynamics simulations},
 journal = {Comp.~Phys.~Comm.},
 year =    2017,
 volume =  212,
 pages =   {113--122}
}

@Article{Nikolskiy19,
 author = {V. Nikolskiy, V. Stegailov},
 title = {GPU acceleration of four-site water models in LAMMPS},
 journal = {Proceeding of the International Conference on Parallel Computing (ParCo 2019), Prague, Czech Republic},
 year =    2019
}

CITE-CITE-CITE-CITE-CITE-CITE-CITE-CITE-CITE-CITE-CITE-CITE-CITE

EwaldDisp initialization ...
Generated 3 of 3 mixed pair_coeff terms from geometric mixing rule
  G vector = 0.55961375,   accuracy = 0.0001
Generated 3 of 3 mixed pair_coeff terms from geometric mixing rule
Neighbor list info ...
  update every 1 steps, delay 0 steps, check yes
  max neighbors/atom: 10000, page size: 100000
  master list distance cutoff = 5.46974
  ghost atom cutoff = 5.46974
  binsize = 2.73487, bins = 4 4 4
  0 neighbor lists, perpetual/occasional/extra = 0 0 0
  vectors: nbox = 7, nkvec = 709
Per MPI rank memory allocation (min/avg/max) = 18.02 | 18.02 | 18.02 Mbytes
   Step          Temp          E_pair         E_mol          TotEng         Press     
         0   0              1.2114127      0              1.2114127      11.106432    
      4147   0             -5.5057953      0             -5.5057953      2.1125349    
Loop time of 110.662 on 1 procs for 4147 steps with 1002 atoms

100.0% CPU use with 1 MPI tasks x 1 OpenMP threads

Minimization stats:
  Stopping criterion = linesearch alpha is zero
  Energy initial, next-to-last, final = 
      1.21141271045144  -5.50579534736424  -5.50579534736424
  Force two-norm initial, final = 1095.6381 0.7458484
  Force max component initial, final = 76.684701 0.14927529
  Final line search alpha, max atom move = 2.0443824e-05 3.0517578e-06
  Iterations, force evaluations = 4147 9651

MPI task timing breakdown:
Section |  min time  |  avg time  |  max time  |%varavg| %total
---------------------------------------------------------------
Pair    | 0.49686    | 0.49686    | 0.49686    |   0.0 |  0.45
Kspace  | 108.92     | 108.92     | 108.92     |   0.0 | 98.42
Neigh   | 0.001046   | 0.001046   | 0.001046   |   0.0 |  0.00
Comm    | 1.0583     | 1.0583     | 1.0583     |   0.0 |  0.96
Output  | 0          | 0          | 0          |   0.0 |  0.00
Modify  | 0.00033701 | 0.00033701 | 0.00033701 |   0.0 |  0.00
Other   |            | 0.1868     |            |       |  0.17

Nlocal:           1002 ave        1002 max        1002 min
Histogram: 1 0 0 0 0 0 0 0 0 0
Nghost:           7748 ave        7748 max        7748 min
Histogram: 1 0 0 0 0 0 0 0 0 0
Neighs:              0 ave           0 max           0 min
Histogram: 1 0 0 0 0 0 0 0 0 0

Total # of neighbors = 0
Ave neighs/atom = 0
Neighbor list builds = 654
Dangerous builds = 0
reset_timestep 0

#####################################################
# Initialization (NVT Sphere with spring)

velocity       all create 1.0 4928459
fix		         1 all nve/sphere update dipole
fix            2 all langevin 1.0 1.0 1.0 214323 omega yes
fix            3 ions recenter 0.5 0.5 0.5 units fraction shift all
fix            4 cation spring couple anion 50.0 0.0 0.0 0.0 1.25

thermo		     1000
thermo_style	 custom step temp c_tempSph press etotal pe ke epair ecoul elong evdwl enthalpy
thermo_modify  norm no
dump	       	 1 all custom 10000 dump.dipoleInit id type x y z q mux muy muz

timestep	     0.005
run		         100000
EwaldDisp initialization ...
Generated 3 of 3 mixed pair_coeff terms from geometric mixing rule
  G vector = 0.55961375,   accuracy = 0.0001
Generated 3 of 3 mixed pair_coeff terms from geometric mixing rule
Per MPI rank memory allocation (min/avg/max) = 18.21 | 18.21 | 18.21 Mbytes
   Step          Temp        c_tempSph        Press          TotEng         PotEng         KinEng         E_pair         E_coul         E_long         E_vdwl        Enthalpy   
         0   1              0.49975037     3.0163223     -4015.3069     -5516.8069      1501.5        -5516.8069     -5975.2052     -291.04978      749.44807     -674.54493    
      1000   1.0007997      1.004552       7.2128968     -2673.3311     -4176.0319      1502.7007     -4176.0319     -5402.7104     -299.72058      1526.3991      5315.3946    
      2000   1.0023181      1.0072399      7.2628901     -2653.6061     -4158.5867      1504.9806     -4158.5867     -5410.3538     -300.9162       1552.6833      5390.4903    
      3000   1.0148132      1.0123923      7.5970427     -2606.0138     -4129.7559      1523.742      -4129.7559     -5439.7511     -300.25479      1610.2501      5808.177     
      4000   1.0322079      1.0176034      7.0258566     -2635.2836     -4185.1438      1549.8602     -4185.1438     -5375.6346     -298.58866      1489.0795      5146.2836    
      5000   0.99457496     0.99944137     7.6408524     -2684.4278     -4177.7821      1493.3543     -4177.7821     -5499.4112     -303.26568      1624.8947      5778.2851    
      6000   1.0170186      1.0290108      7.546068      -2586.5606     -4113.6141      1527.0535     -4113.6141     -5398.9237     -303.69074      1589.0004      5771.1727    
      7000   0.98739885     0.99383232     6.8440716     -2713.6218     -4196.2012      1482.5794     -4196.2012     -5377.2977     -298.00781      1479.1043      4866.6073    
      8000   1.01751        1.0113189      7.7482703     -2579.4049     -4107.1962      1527.7913     -4107.1962     -5449.5255     -299.02417      1641.3535      6002.2798    
      9000   0.97120919     0.97767528     7.529282      -2717.762      -4176.0326      1458.2706     -4176.0326     -5484.7722     -298.5546       1607.2941      5621.3797    
     10000   0.93801511     0.97506169     7.2932237     -2748.4584     -4156.8881      1408.4297     -4156.8881     -5424.4405     -295.0459       1562.5983      5329.2343    
     11000   0.96948439     0.98911342     7.4665401     -2725.0192     -4180.7         1455.6808     -4180.7        -5474.2112     -303.83792      1597.3492      5544.6321    
     12000   0.9937223      0.97765006     7.159292      -2698.0922     -4190.1662      1492.074      -4190.1662     -5418.2079     -302.93261      1530.9743      5231.263     
     13000   0.99171445     0.99555097     7.5295203     -2636.151      -4125.2102      1489.0592     -4125.2102     -5431.2604     -304.24788      1610.298       5703.2547    
     14000   0.98384097     0.99013921     7.3008586     -2731.581      -4208.8182      1477.2372     -4208.8182     -5473.0438     -302.37527      1566.6009      5354.5679    
     15000   1.0134269      1.0255082      7.6885644     -2639.2444     -4160.9049      1521.6605     -4160.9049     -5485.4549     -300.87914      1625.4291      5876.3124    
     16000   0.991267       0.98279432     7.1057246     -2717.5922     -4205.9796      1488.3874     -4205.9796     -5431.99       -301.60905      1527.6194      5152.4337    
     17000   1.0142904      1.0173138      7.7559787     -2522.2944     -4045.2514      1522.957      -4045.2514     -5376.7124     -296.30703      1627.768       6067.9279    
     18000   1.0346845      0.99884178     7.4585868     -2614.0161     -4167.5949      1553.5788     -4167.5949     -5448.8612     -299.05306      1580.3194      5646.8264    
     19000   0.95759143     1.0130307      7.4947441     -2655.4407     -4093.2643      1437.8235     -4093.2643     -5385.9232     -301.84701      1594.506       5645.4482    
     20000   1.0504923      1.0405219      7.1520262     -2630.6702     -4207.9844      1577.3141     -4207.9844     -5422.4288     -300.69143      1515.1359      5290.6377    
     21000   1.0154472      1.0189526      7.3284985     -2680.0016     -4204.6956      1524.694      -4204.6956     -5455.7053     -301.2509       1552.2606      5436.7601    
     22000   0.99091631     0.99683487     7.3873188     -2639.1229     -4126.9837      1487.8608     -4126.9837     -5388.2119     -302.78663      1564.0148      5542.7859    
     23000   0.98199933     0.98544326     7.5362238     -2629.9027     -4104.3747      1474.472      -4104.3747     -5395.8188     -301.27198      1592.7161      5716.9275    
     24000   0.95972315     1.001251       7.5720911     -2670.6414     -4111.6657      1441.0243     -4111.6657     -5411.2812     -302.45421      1602.0697      5715.9141    
     25000   1.0049687      1.0067513      7.501946      -2525.4308     -4034.3913      1508.9605     -4034.3913     -5302.3758     -302.52397      1570.5085      5783.4347    
     26000   1.0121579      1.0258159      7.5756405     -2621.0571     -4140.8122      1519.7551     -4140.8122     -5457.1871     -299.0128       1615.3877      5769.4295    
     27000   0.98787363     0.9913684      7.0460055     -2656.3213     -4139.6135      1483.2923     -4139.6135     -5342.4811     -300.79256      1503.6601      5147.5621    
     28000   1.0337305      1.0185281      7.1716316     -2642.7795     -4194.9258      1552.1463     -4194.9258     -5420.7925     -299.8901       1525.7568      5300.2425    
     29000   0.98187266     0.97686515     7.7526449     -2660.7974     -4135.0792      1474.2818     -4135.0792     -5482.7849     -300.80203      1648.5078      5925.7326    
     30000   0.9924151      0.99068476     7.4886849     -2622.6479     -4112.7592      1490.1113     -4112.7592     -5412.4745     -296.96668      1596.682       5671.5301    
     31000   0.98995331     0.99465601     7.1167842     -2678.7037     -4165.1186      1486.4149     -4165.1186     -5373.8476     -299.68583      1508.4148      5203.5715    
     32000   0.98679811     0.98527775     7.7813832     -2630.4389     -4112.1162      1481.6774     -4112.1162     -5455.5578     -299.61274      1643.0543      5987.9204    
     33000   0.98762227     1.0130513      7.6871359     -2636.4511     -4119.3659      1482.9148     -4119.3659     -5444.5167     -296.91945      1622.0702      5877.5235    
     34000   0.98721047     0.98693868     7.4657576     -2587.942      -4070.2385      1482.2965     -4070.2385     -5352.7032     -299.64198      1582.1067      5680.8426    
     35000   1.0052395      0.99824507     7.2789485     -2714.5394     -4223.9066      1509.3671     -4223.9066     -5484.49       -302.20565      1562.7891      5347.3426    
     36000   1.0154665      1.0013737      7.734562      -2519.1365     -4043.8595      1524.723      -4043.8595     -5366.435      -299.2951       1621.8707      6047.3654    
     37000   0.98469633     1.0050572      7.1514471     -2764.9961     -4243.5177      1478.5215     -4243.5177     -5465.4956     -299.92118      1521.8992      5155.6703    
     38000   1.0275717      1.0328433      7.6277729     -2562.8022     -4105.7011      1542.8989     -4105.7011     -5415.7696     -301.11044      1611.1789      5885.4242    
     39000   0.99004258     1.0066873      7.5324413     -2658.8191     -4145.3681      1486.5489     -4145.3681     -5457.8465     -301.30586      1613.7843      5683.8218    
     40000   0.98980658     0.9805215      7.3093118     -2686.6894     -4172.8839      1486.1946     -4172.8839     -5434.6719     -300.22022      1562.0081      5408.8219    
     41000   1.0503019      1.0225735      7.436278      -2561.1373     -4138.1656      1577.0283     -4138.1656     -5396.795      -299.13483      1557.7642      5674.9969    
     42000   1.01237        1.0025689      7.3298596     -2702.3578     -4222.4314      1520.0736     -4222.4314     -5504.5006     -299.96531      1582.0345      5415.9114    
     43000   1.0314786      1.0128989      7.1609761     -2652.8014     -4201.5665      1548.7651     -4201.5665     -5431.5156     -300.02678      1529.9759      5278.4191    
     44000   0.96483216     0.97767624     7.3789983     -2688.6271     -4137.3226      1448.6955     -4137.3226     -5405.6545     -301.31706      1569.6489      5484.0662    
     45000   1.0602216      1.0348599      7.4678229     -2576.9019     -4168.8246      1591.9227     -4168.8246     -5442.3575     -301.85171      1575.3846      5694.1701    
     46000   0.97359348     0.97167478     7.6485127     -2595.779      -4057.6296      1461.8506     -4057.6296     -5384.6965     -300.44868      1627.5155      5875.4181    
     47000   1.003506       0.99867641     7.192726      -2728.3945     -4235.1587      1506.7643     -4235.1587     -5469.0427     -301.03183      1534.9158      5237.9909    
     48000   0.99285855     0.99852735     7.1869168     -2665.262      -4156.0391      1490.7771     -4156.0391     -5378.9662     -305.48309      1528.4102      5294.6893    
     49000   0.99544131     0.98390113     7.5709189     -2670.7609     -4165.416       1494.6551     -4165.416      -5467.0181     -305.32073      1606.9229      5714.4963    
     50000   0.95802967     1.0000373      7.3615486     -2722.6123     -4161.0939      1438.4816     -4161.0939     -5434.7185     -300.18618      1573.8108      5430.7544    
     51000   0.97630651     0.99916876     7.5347442     -2719.4259     -4185.3501      1465.9242     -4185.3501     -5491.2606     -303.53269      1609.4431      5625.7656    
     52000   1.0146498      1.0288707      7.1579064     -2654.235      -4177.7317      1523.4967     -4177.7317     -5397.0577     -299.8373       1519.1634      5273.5855    
     53000   0.98561848     1.0104378      7.3478709     -2679.0433     -4158.9494      1479.9061     -4158.9494     -5431.3667     -301.91529      1574.3326      5459.1745    
     54000   1.0149996      1.0064975      7.3747912     -2617.9008     -4141.9227      1524.0219     -4141.9227     -5413.0617     -297.97413      1569.1131      5550.133     
     55000   1.0136848      1.0129167      7.5664715     -2622.9401     -4144.9878      1522.0477     -4144.9878     -5443.3364     -298.90346      1597.2521      5757.3913    
     56000   0.97198825     0.97041224     7.5691917     -2628.8816     -4088.322       1459.4404     -4088.322      -5384.2484     -301.12747      1597.0539      5754.4626    
     57000   0.99145254     1.0054555      7.6584297     -2582.4782     -4071.1442      1488.666      -4071.1442     -5379.6912     -298.46247      1607.0094      5899.7026    
     58000   1.0107826      1.000544       7.4731059     -2601.4294     -4119.1195      1517.6901     -4119.1195     -5393.8379     -298.7461       1573.4645      5675.4939    
     59000   0.96763762     0.95835953     7.4511332     -2701.8468     -4154.7547      1452.9079     -4154.7547     -5443.9541     -302.71588      1591.9153      5550.7403    
     60000   1.039655       1.0334358      7.2304982     -2636.8699     -4197.9118      1561.042      -4197.9118     -5438.1626     -302.12264      1542.3735      5371.3506    
     61000   0.99591474     0.98317315     7.9796168     -2596.0771     -4091.4431      1495.366      -4091.4431     -5473.551      -301.19032      1683.2982      6241.838     
     62000   0.99111952     1.0057698      7.4866614     -2725.2259     -4213.3918      1488.166      -4213.3918     -5512.7979     -302.13517      1601.5412      5566.711     
     63000   1.0106087      0.99115818     7.5134698     -2631.2163     -4148.6453      1517.429      -4148.6453     -5451.9556     -302.88444      1606.1948      5690.4125    
     64000   0.95970916     0.9876034      7.3409892     -2795.465      -4236.4683      1441.0033     -4236.4683     -5517.1285     -302.1215       1582.7817      5335.1309    
     65000   1.0313111      1.0079026      7.4596515     -2654.8838     -4203.3974      1548.5137     -4203.3974     -5489.4963     -298.40414      1584.503       5607.1379    
     66000   0.99373625     0.99309813     7.6229425     -2647.3301     -4139.4251      1492.095      -4139.4251     -5470.1381     -299.43484      1630.1479      5795.5464    
     67000   0.97943431     0.95868621     7.7342807     -2619.1602     -4089.7808      1470.6206     -4089.7808     -5420.1736     -302.61422      1633.007       5947.0302    
     68000   0.9707118      0.97565564     7.8272285     -2683.5459     -4141.0696      1457.5238     -4141.0696     -5512.0152     -298.39923      1669.3448      5985.59      
     69000   1.0036949      0.99237929     7.1224023     -2665.351      -4172.3989      1507.0479     -4172.3989     -5384.4905     -297.48371      1509.5753      5223.1465    
     70000   0.99327337     0.99865241     7.6942854     -2568.0714     -4059.4714      1491.4        -4059.4714     -5394.0173     -300.18729      1634.7332      5953.8218    
     71000   0.97086546     0.98834222     7.4365239     -2595.3062     -4053.0606      1457.7545     -4053.0606     -5317.6211     -297.57993      1562.1404      5641.1003    
     72000   0.99656975     1.0063281      7.3696891     -2659.87       -4156.2194      1496.3495     -4156.2194     -5444.0538     -294.03557      1581.87        5502.5129    
     73000   1.0322766      1.0177387      7.6060475     -2577.1782     -4127.1416      1549.9634     -4127.1416     -5423.5953     -302.83855      1599.2923      5846.986     
     74000   1.015898       1.0186325      7.0902073     -2759.1658     -4284.5366      1525.3709     -4284.5366     -5518.7087     -300.6189       1534.7909      5093.6739    
     75000   1.0545118      1.0149793      7.4247164     -2647.8119     -4231.1613      1583.3494     -4231.1613     -5491.0712     -304.51893      1564.4288      5575.517     
     76000   0.94727507     0.99869005     7.5459762     -2676.1043     -4098.4378      1422.3335     -4098.4378     -5415.0578     -300.71583      1617.3358      5681.5273    
     77000   1.0467212      1.0012724      7.4133991     -2533.9113     -4105.5632      1571.6519     -4105.5632     -5365.5191     -298.07726      1558.0332      5676.8831    
     78000   0.98286309     0.9696922      7.1696552     -2726.2674     -4202.0363      1475.7689     -4202.0363     -5424.1204     -302.16661      1524.2507      5214.5656    
     79000   1.0485538      1.036464       7.4738359     -2571.8979     -4146.3015      1574.4036     -4146.3015     -5423.873      -296.87763      1574.4492      5705.8339    
     80000   1.0092065      1.0167021      7.5818626     -2606.2111     -4121.5347      1515.3236     -4121.5347     -5429.5223     -299.20533      1607.1929      5791.1669    
     81000   1.0560376      1.0177154      7.4008065     -2576.1861     -4161.8266      1585.6405     -4161.8266     -5429.736      -303.11942      1571.0288      5620.6612    
     82000   0.95644844     0.96908801     7.4305954     -2714.5574     -4150.6647      1436.1073     -4150.6647     -5423.2517     -299.21809      1571.805       5515.2829    
     83000   1.0379935      1.0293104      7.3970911     -2594.2996     -4152.8469      1558.5473     -4152.8469     -5418.5959     -298.72534      1564.4744      5598.4327    
     84000   0.95337506     0.9706073      7.3151784     -2728.821      -4160.3136      1431.4927     -4160.3136     -5414.823      -298.54119      1553.0505      5373.1879    
     85000   0.97429792     0.98441401     7.4784556     -2710.3582     -4173.2665      1462.9083     -4173.2665     -5462.8709     -300.82594      1590.4304      5572.4903    
     86000   1.0182067      1.0069865      7.7750768     -2581.1883     -4110.0256      1528.8373     -4110.0256     -5452.6008     -300.3048       1642.88        6030.1863    
     87000   1.0474264      1.0148381      7.6357218     -2578.6262     -4151.3369      1572.7107     -4151.3369     -5463.4624     -299.44715      1611.5727      5878.4042    
     88000   0.95962603     0.96713708     7.3927518     -2694.2039     -4135.0824      1440.8785     -4135.0824     -5411.2126     -302.17303      1578.3032      5493.7223    
     89000   0.97293495     0.98587327     7.3939659     -2637.5227     -4098.3845      1460.8618     -4098.3845     -5364.3        -302.26831      1568.1838      5551.7482    
     90000   1.0227925      1.0150645      7.2620066     -2674.1513     -4209.8741      1535.7229     -4209.8741     -5447.7227     -303.48022      1541.3288      5368.9667    
     91000   0.98563446     0.97401512     7.5842094     -2674.5698     -4154.5         1479.9301     -4154.5        -5476.4157     -300.04148      1621.9572      5725.4074    
     92000   1.0023943      1.0046373      7.6325803     -2666.5865     -4171.6816      1505.0951     -4171.6816     -5500.5848     -305.0757       1633.9789      5786.9645    
     93000   1.0243195      1.011099       7.6437256     -2605.2285     -4143.2442      1538.0157     -4143.2442     -5455.6692     -302.03021      1614.4553      5860.6666    
     94000   0.98971208     0.9929452      7.3760657     -2663.8235     -4149.8762      1486.0527     -4149.8762     -5418.9584     -300.85428      1569.9364      5505.6218    
     95000   1.0022773      0.9805469      7.1525123     -2704.6636     -4209.5831      1504.9194     -4209.5831     -5434.1043     -300.73803      1525.2592      5217.1825    
     96000   0.98355497     0.97734346     7.1190444     -2706.4052     -4183.213       1476.8078     -4183.213      -5405.8697     -301.56553      1524.2222      5178.3732    
     97000   1.0001626      0.98575683     7.6489664     -2626.32       -4128.0642      1501.7442     -4128.0642     -5441.7525     -302.04938      1615.7377      5845.3796    
     98000   0.99811966     0.99023029     7.3290233     -2713.8914     -4212.5681      1498.6767     -4212.5681     -5488.5336     -303.5097       1579.4752      5403.4515    
     99000   0.97516844     0.97889247     7.3020631     -2725.7255     -4189.9409      1464.2154     -4189.9409     -5456.6267     -300.09753      1566.7834      5361.7574    
    100000   0.95350657     0.97432551     7.3944524     -2678.7631     -4110.4532      1431.6901     -4110.4532     -5384.0137     -296.79558      1570.3561      5511.0466    
Loop time of 1150.27 on 1 procs for 100000 steps with 1002 atoms

Performance: 37556.543 tau/day, 86.936 timesteps/s
100.0% CPU use with 1 MPI tasks x 1 OpenMP threads

MPI task timing breakdown:
Section |  min time  |  avg time  |  max time  |%varavg| %total
---------------------------------------------------------------
Pair    | 5.3517     | 5.3517     | 5.3517     |   0.0 |  0.47
Kspace  | 1124.6     | 1124.6     | 1124.6     |   0.0 | 97.77
Neigh   | 0.016023   | 0.016023   | 0.016023   |   0.0 |  0.00
Comm    | 11.322     | 11.322     | 11.322     |   0.0 |  0.98
Output  | 0.013914   | 0.013914   | 0.013914   |   0.0 |  0.00
Modify  | 7.9494     | 7.9494     | 7.9494     |   0.0 |  0.69
Other   |            | 1.013      |            |       |  0.09

Nlocal:           1002 ave        1002 max        1002 min
Histogram: 1 0 0 0 0 0 0 0 0 0
Nghost:           7650 ave        7650 max        7650 min
Histogram: 1 0 0 0 0 0 0 0 0 0
Neighs:              0 ave           0 max           0 min
Histogram: 1 0 0 0 0 0 0 0 0 0

Total # of neighbors = 0
Ave neighs/atom = 0
Neighbor list builds = 10804
Dangerous builds = 1

undump         1
unfix          1
unfix          2
unfix          3
unfix          4

#####################################################
# Equilibration (NVT Sphere with colvars)

fix		         1 all nve/sphere update dipole
fix            2 all langevin 1.0 1.0 1.0 214323 omega yes
fix            3 ions colvars input.colvars output equil

thermo		     1000
thermo_style	 custom step temp c_tempSph press etotal pe ke epair ecoul elong evdwl enthalpy
WARNING: New thermo_style command, previous thermo_modify settings will be lost (../output.cpp:903)
thermo_modify  norm no
dump	       	 1 all custom 10000 dump.dipoleEquil id type x y z q mux muy muz

timestep	     0.005
run		         500000
EwaldDisp initialization ...
Generated 3 of 3 mixed pair_coeff terms from geometric mixing rule
  G vector = 0.55961375,   accuracy = 0.0001
Generated 3 of 3 mixed pair_coeff terms from geometric mixing rule
colvars: Creating proxy instance
colvars: ----------------------------------------------------------------------
colvars: Initializing the collective variables module, version 2022-05-24.
colvars: Please cite Fiorin et al, Mol Phys 2013:
colvars:   https://doi.org/10.1080/00268976.2013.813594
colvars: as well as all other papers listed below for individual features used.
colvars: This version was built with the C++11 standard or higher.
colvars: Using LAMMPS interface, version "2022-05-09".
colvars: ----------------------------------------------------------------------
colvars: Reading new configuration from file "input.colvars":
colvars: # units = "" [default]
colvars: # indexFile = "groups.ndx"
colvars: The following index groups are currently defined:
colvars:   cation (1 atoms)
colvars:   anion (1 atoms)
colvars: # smp = on [default]
colvars: # colvarsTrajFrequency = 1000
colvars: # colvarsRestartFrequency = 0 [default]
colvars: # scriptedColvarForces = off [default]
colvars: # scriptingAfterBiases = off [default]
colvars: ----------------------------------------------------------------------
colvars:   Initializing a new collective variable.
colvars:   # name = "dist"
colvars:   Initializing a new "distance" component.
colvars:     # name = "" [default]
colvars:     # componentCoeff = 1 [default]
colvars:     # componentExp = 1 [default]
colvars:     # period = 0 [default]
colvars:     # wrapAround = 0 [default]
colvars:     # forceNoPBC = off [default]
colvars:     # scalable = on [default]
colvars:       Initializing atom group "group1".
colvars:       # name = "" [default]
colvars:       # centerToOrigin = off [default]
colvars:       # centerToReference = off [default]
colvars:       # rotateToReference = off [default]
colvars:       # atomsOfGroup = "" [default]
colvars:       # indexGroup = "cation"
colvars:       # psfSegID =  [default]
colvars:       # atomsFile = "" [default]
colvars:       # dummyAtom = ( 0 , 0 , 0 ) [default]
colvars:       # enableFitGradients = on [default]
colvars:       # printAtomIDs = off [default]
colvars:       Atom group "group1" defined with 1 atoms requested.
colvars:       Initializing atom group "group2".
colvars:       # name = "" [default]
colvars:       # centerToOrigin = off [default]
colvars:       # centerToReference = off [default]
colvars:       # rotateToReference = off [default]
colvars:       # atomsOfGroup = "" [default]
colvars:       # indexGroup = "anion"
colvars:       # psfSegID =  [default]
colvars:       # atomsFile = "" [default]
colvars:       # dummyAtom = ( 0 , 0 , 0 ) [default]
colvars:       # enableFitGradients = on [default]
colvars:       # printAtomIDs = off [default]
colvars:       Atom group "group2" defined with 1 atoms requested.
colvars:     # oneSiteSystemForce = off [default]
colvars:     # oneSiteTotalForce = off [default]
colvars:   All components initialized.
colvars:   # timeStepFactor = 1 [default]
colvars:   # width = 0.01
colvars:   # lowerBoundary = 0.75
colvars:   # upperBoundary = 2.5
colvars:   # hardLowerBoundary = off [default]
colvars:   # hardUpperBoundary = off [default]
colvars:   # expandBoundaries = off [default]
colvars:   # extendedLagrangian = off [default]
colvars:   # outputValue = on [default]
colvars:   # outputVelocity = off [default]
colvars:   # outputTotalForce = off [default]
colvars:   # outputAppliedForce = off [default]
colvars:   # subtractAppliedForce = off [default]
colvars:   # runAve = off [default]
colvars:   # corrFunc = off [default]
colvars: ----------------------------------------------------------------------
colvars: Collective variables initialized, 1 in total.
colvars: ----------------------------------------------------------------------
colvars:   Initializing a new "abf" instance.
colvars:   # name = "abf_dist"
colvars:   # colvars = { dist }
colvars:   # stepZeroData = off [default]
colvars:   # outputEnergy = on
colvars:   # outputFreq = 1000
colvars:   # timeStepFactor = 1 [default]
colvars:   WARNING: ABF should not be run without a thermostat or at 0 Kelvin!
colvars:   # applyBias = on [default]
colvars:   # updateBias = on [default]
colvars:   # hideJacobian = off [default]
colvars:   Jacobian (geometric) forces will be included in reported free energy gradients.
colvars:   # fullSamples = 1000
colvars:   # inputPrefix =  [default]
colvars:   # historyFreq = 1000000
colvars:   # shared = off [default]
colvars:   # maxForce =  [default]
colvars:   # integrate = on [default]
colvars:   Finished ABF setup.
colvars: ----------------------------------------------------------------------
colvars:   Initializing a new "harmonicwalls" instance.
colvars:   # name = "wall_dist"
colvars:   # colvars = { dist }
colvars:   # stepZeroData = off [default]
colvars:   # outputEnergy = off [default]
colvars:   # outputFreq = 0 [default]
colvars:   # timeStepFactor = 1 [default]
colvars:   # writeTISamples = off [default]
colvars:   # writeTIPMF = off [default]
colvars:   # forceConstant = 1 [default]
colvars:   # targetForceConstant = -1 [default]
colvars:   # lowerWalls = { 0.7 }
colvars:   # upperWalls = { 2.55 }
colvars:   # lowerWallConstant = 1
colvars:   # upperWallConstant = 1
colvars:   The lower wall force constant for colvar "dist" will be rescaled to 10000 according to the specified width (0.01).
colvars:   The upper wall force constant for colvar "dist" will be rescaled to 10000 according to the specified width (0.01).
colvars: ----------------------------------------------------------------------
colvars: Collective variables biases initialized, 2 in total.
colvars: ----------------------------------------------------------------------
colvars: Collective variables module (re)initialized.
colvars: ----------------------------------------------------------------------
colvars: The restart output state file will be "rest.colvars.state".
colvars: The final output state file will be "equil.colvars.state".
colvars: Opening trajectory file "equil.colvars.traj".
colvars: Setting initial step number from LAMMPS: 100000
colvars: Re-initialized atom group for variable "dist":0/0. 1 atoms: total mass = 1, total charge = 13.626.
colvars: Re-initialized atom group for variable "dist":0/1. 1 atoms: total mass = 1, total charge = -13.626.
colvars:   Prepared sample and gradient buffers at step 100000.
Per MPI rank memory allocation (min/avg/max) = 18.22 | 18.22 | 18.22 Mbytes
   Step          Temp        c_tempSph        Press          TotEng         PotEng         KinEng         E_pair         E_coul         E_long         E_vdwl        Enthalpy   
    100000   0.95350657     0.97432551     7.3944524     -2678.7631     -4110.4532      1431.6901     -4110.4532     -5384.0137     -296.79558      1570.3561      5511.0466    
    101000   0.97448283     0.98121828     7.3587806     -2691.161      -4154.3469      1463.186      -4154.3469     -5412.613      -303.03771      1561.3038      5459.1401    
    102000   1.0569054      1.0499454      7.2994127     -2650.5314     -4237.4749      1586.9435     -4237.4749     -5492.2205     -304.3781       1559.1237      5434.016     
    103000   1.0041227      1.0125632      7.3505317     -2665.3927     -4173.0829      1507.6902     -4173.0829     -5445.7186     -300.47746      1573.1131      5475.7722    
    104000   1.0135563      0.99162494     7.5733108     -2568.6717     -4090.5265      1521.8548     -4090.5265     -5388.0956     -298.79427      1596.3634      5819.2346    
    105000   0.98135129     0.99230007     7.525741      -2640.0384     -4113.5374      1473.499      -4113.5374     -5402.9151     -300.39708      1589.7748      5695.1815    
    106000   1.0052783      0.98967285     7.655556      -2642.9725     -4152.3979      1509.4254     -4152.3979     -5488.4169     -296.73626      1632.7553      5836.0255    
    107000   0.99166671     1.0188757      7.1566879     -2681.346      -4170.3336      1488.9876     -4170.3336     -5388.1183     -301.34685      1519.1315      5245.125     
    108000   1.027436       0.99818086     7.4783033     -2669.2637     -4211.9588      1542.6951     -4211.9588     -5505.3812     -302.2154       1595.6378      5613.4161    
    109000   0.98569578     0.98750811     7.6154877     -2625.692      -4105.7142      1480.0222     -4105.7142     -5413.8952     -301.06312      1609.2441      5808.9279    
    110000   0.98994401     0.98709369     7.718216      -2643.3167     -4129.7177      1486.4009     -4129.7177     -5466.364      -299.08269      1635.729       5905.0811    
    111000   0.99586179     0.99493954     7.5084495     -2641.4082     -4136.6947      1495.2865     -4136.6947     -5427.6913     -301.31307      1592.3097      5674.6603    
    112000   1.0385547      1.0112357      7.3700352     -2611.6455     -4171.0353      1559.3898     -4171.0353     -5427.5854     -304.74311      1561.2932      5551.1207    
    113000   1.053318       1.0163165      7.3462079     -2640.5502     -4222.1072      1581.557      -4222.1072     -5476.2791     -304.70162      1558.8735      5495.8257    
    114000   1.0188367      1.0107847      7.2162955     -2669.7963     -4199.5796      1529.7833     -4199.5796     -5442.3156     -298.0181       1540.7542      5322.6937    
    115000   0.95961352     1.0049769      7.4700174     -2659.914      -4100.7737      1440.8597     -4100.7737     -5385.8987     -297.65352      1582.7785      5613.5886    
    116000   0.98201746     0.99106262     7.0753046     -2751.0554     -4225.5546      1474.4992     -4225.5546     -5451.5495     -297.84523      1523.8401      5085.2785    
    117000   1.001163       0.99894771     7.1516254     -2691.0884     -4194.3347      1503.2463     -4194.3347     -5427.6551     -299.84535      1533.1657      5229.7755    
    118000   0.99693175     0.975096       7.4932072     -2675.9145     -4172.8075      1496.893      -4172.8075     -5464.4034     -304.6016       1596.1975      5623.2722    
    119000   1.0434087      1.0257396      7.6011901     -2541.6825     -4108.3607      1566.6782     -4108.3607     -5417.5575     -295.88704      1605.0839      5877.1019    
    120000   0.96128406     0.99970812     7.4934249     -2726.6603     -4170.0283      1443.368      -4170.0283     -5466.3992     -300.60109      1596.972       5572.7675    
    121000   1.0097588      1.0272398      7.8559221     -2606.3728     -4122.5257      1516.1529     -4122.5257     -5481.5614     -302.59342      1661.6292      6094.543     
    122000   0.9602589      1.0002027      7.1319559     -2689.6124     -4131.4411      1441.8287     -4131.4411     -5351.2528     -294.70503      1514.5167      5209.4664    
    123000   0.94907115     0.98202015     7.317974      -2724.0063     -4149.0367      1425.0303     -4149.0367     -5416.9139     -300.85559      1568.7328      5381.0988    
    124000   0.94896796     1.0002007      7.5214258     -2713.1656     -4138.041       1424.8754     -4138.041      -5464.7867     -295.51097      1622.2567      5617.2749    
    125000   1.0118773      1.0203847      7.3925062     -2616.4149     -4135.7487      1519.3338     -4135.7487     -5406.4705     -303.98732      1574.7091      5571.2393    
    126000   0.98579128     0.98642372     7.7377779     -2629.7219     -4109.8875      1480.1656     -4109.8875     -5463.0086     -304.05028      1657.1714      5940.3419    
    127000   1.0155572      0.98309895     7.3442291     -2622.2012     -4147.0602      1524.8591     -4147.0602     -5399.5295     -303.15407      1555.6234      5511.9832    
    128000   1.0568835      1.012953       7.2522183     -2627.2453     -4214.1558      1586.9105     -4214.1558     -5459.4254     -298.45934      1543.7289      5405.0314    
    129000   0.99411295     0.9861995      7.4049954     -2678.8235     -4171.4841      1492.6606     -4171.4841     -5457.9103     -305.30369      1591.7298      5522.6632    
    130000   1.0026125      1.0089364      7.4829443     -2640.6067     -4146.0294      1505.4227     -4146.0294     -5422.5017     -301.06509      1577.5373      5647.2132    
    131000   1.031507       1.0078492      7.4990242     -2571.2887     -4120.0964      1548.8077     -4120.0964     -5399.1101     -299.02637      1578.04        5734.3407    
    132000   1.0153022      1.0224975      7.3562909     -2645.7481     -4170.2244      1524.4763     -4170.2244     -5427.8187     -300.29511      1557.8894      5501.7954    
    133000   0.96403869     0.99333857     7.170732      -2730.8225     -4178.3266      1447.5041     -4178.3266     -5423.6938     -300.40486      1545.772       5211.2032    
    134000   0.96064475     0.98953988     7.2237466     -2710.717      -4153.1251      1442.4081     -4153.1251     -5380.1165     -303.01604      1530.0075      5290.0257    
    135000   0.96513153     0.97209571     7.2136648     -2711.9735     -4161.1185      1449.145      -4161.1185     -5401.0349     -301.72915      1541.6456      5277.6029    
    136000   1.029116       1.0249081      7.0474343     -2710.4623     -4255.6801      1545.2177     -4255.6801     -5455.8244     -302.75258      1502.8969      5095.0036    
    137000   1.05065        1.045132       7.5794988     -2574.3016     -4151.8525      1577.5509     -4151.8525     -5448.109      -299.84695      1596.1034      5820.4583    
    138000   0.99913311     1.0017285      7.3195241     -2709.1757     -4209.374       1500.1984     -4209.374      -5472.782      -298.06115      1561.4692      5397.6464    
    139000   0.98424854     0.99407151     7.0726827     -2682.0932     -4159.9424      1477.8492     -4159.9424     -5359.3939     -301.11135      1500.5629      5151.3369    
    140000   0.98758242     0.97850547     7.3207653     -2728.3309     -4211.1859      1482.855      -4211.1859     -5489.7608     -300.14436      1578.7192      5379.8659    
    141000   1.0454493      1.0246341      7.4994305     -2635.3541     -4205.0963      1569.7422     -4205.0963     -5491.9451     -298.20489      1585.0537      5670.7253    
    142000   1.0382654      1.0178287      7.3462819     -2599.813      -4158.7686      1558.9555     -4158.7686     -5413.09       -300.86572      1555.1872      5536.6449    
    143000   0.98405815     0.99527839     7.3029854     -2693.754      -4171.3173      1477.5633     -4171.3173     -5429.1851     -302.25865      1560.1264      5394.7503    
    144000   1.0100463      0.99349047     7.1366136     -2639.8575     -4156.4421      1516.5845     -4156.4421     -5389.6032     -294.26879      1527.4299      5264.3798    
    145000   0.98861528     0.99848591     7.3714946     -2739.0379     -4223.4437      1484.4058     -4223.4437     -5488.2468     -305.51146      1570.3146      5425.3447    
    146000   1.0369835      0.99154803     7.7064367     -2521.0692     -4078.0999      1557.0307     -4078.0999     -5390.0606     -300.69911      1612.6598      6014.2823    
    147000   1.0358796      1.0118846      7.9316075     -2514.1505     -4069.5237      1555.3732     -4069.5237     -5431.9168     -297.91643      1660.3095      6270.5914    
    148000   0.96600982     0.99400886     7.1463855     -2768.0948     -4218.5586      1450.4637     -4218.5586     -5457.7956     -301.91881      1541.1558      5146.9656    
    149000   1.0438287      1.0085004      7.2947883     -2588.8427     -4156.1514      1567.3088     -4156.1514     -5393.175      -300.91202      1537.9356      5490.5829    
    150000   1.0470695      1.0221463      6.6945127     -2747.7317     -4319.9066      1572.1749     -4319.9066     -5467.263      -300.51333      1447.8697      4666.8518    
    151000   1.0185322      1.0265632      7.4229319     -2620.6632     -4149.9893      1529.326      -4149.9893     -5438.187      -300.22143      1588.4192      5600.6893    
    152000   1.014291       1.0201195      7.2522242     -2577.9144     -4100.8723      1522.9579     -4100.8723     -5343.8471     -298.45476      1541.4295      5454.3689    
    153000   1.0022956      1.0090832      7.4349384     -2615.109      -4120.0558      1504.9469     -4120.0558     -5406.7495     -302.17164      1588.8653      5619.5414    
    154000   0.98199446     0.99947367     7.3038935     -2660.2028     -4134.6675      1474.4647     -4134.6675     -5388.9012     -302.54989      1556.7835      5429.3073    
    155000   1.0096776      1.0103046      7.3051785     -2668.1282     -4184.1591      1516.0309     -4184.1591     -5427.3406     -301.20027      1544.3818      5422.8052    
    156000   1.0316721      1.0108679      7.3866213     -2598.651      -4147.7067      1549.0557     -4147.7067     -5411.2773     -300.51394      1564.0845      5582.4852    
    157000   0.96056238     0.99180231     7.2199404     -2783.7386     -4226.023       1442.2844     -4226.023      -5479.0252     -299.47162      1552.4738      5212.7884    
    158000   0.95687        0.98869387     7.8264323     -2666.0836     -4102.8239      1436.7403     -4102.8239     -5462.8957     -301.42159      1661.4934      6002.1704    
    159000   0.96717108     0.98211308     7.5690185     -2715.3959     -4167.6033      1452.2074     -4167.6033     -5496.373      -297.94348      1626.7132      5667.7565    
    160000   1.017954       1.0215501      7.3368868     -2622.8159     -4151.2738      1528.4579     -4151.2738     -5399.6645     -301.68879      1550.0795      5503.2364    
    161000   1.0117098      1.0228548      7.6790221     -2619.3246     -4138.4069      1519.0823     -4138.4069     -5462.9822     -303.06209      1627.6374      5885.6635    
    162000   1.0632224      1.0488116      7.3537247     -2565.5697     -4161.9982      1596.4285     -4161.9982     -5400.8374     -303.64732      1542.4866      5579.1316    
    163000   0.97196221     0.99927575     7.0603384     -2786.7844     -4246.1856      1459.4013     -4246.1856     -5465.9923     -302.4791       1522.2857      5032.9736    
    164000   1.03273        1.0236075      7.4053091     -2627.9922     -4178.6363      1550.6441     -4178.6363     -5457.3697     -305.32629      1584.0597      5573.842     
    165000   0.94445094     0.9529525      7.2952218     -2801.1869     -4219.28        1418.0931     -4219.28       -5492.4368     -302.41742      1575.5742      5278.7188    
    166000   0.99661962     1.0152593      7.4336938     -2638.5339     -4134.9583      1496.4244     -4134.9583     -5428.4867     -295.34167      1588.8701      5594.7381    
    167000   1.0452212      1.0094878      7.2637039     -2598.104      -4167.5036      1569.3996     -4167.5036     -5426.1969     -300.41507      1559.1083      5446.8937    
    168000   1.01501        1.0071792      7.4831931     -2632.9294     -4156.9669      1524.0375     -4156.9669     -5444.1876     -296.04131      1583.262       5655.166     
    169000   0.96992386     0.99601204     7.2181311     -2704.488      -4160.8287      1456.3407     -4160.8287     -5417.1935     -297.96476      1554.3295      5290.035     
    170000   0.97507652     0.98137155     7.5880111     -2698.2482     -4162.3256      1464.0774     -4162.3256     -5476.4985     -300.83003      1615.003       5705.9397    
    171000   1.0881724      1.0215028      7.4816484     -2544.4772     -4178.3681      1633.8909     -4178.3681     -5458.1425     -300.26608      1580.0405      5741.9074    
    172000   0.98701991     1.0021094      7.2779559     -2703.7452     -4185.7556      1482.0104     -4185.7556     -5426.1504     -301.83329      1542.2281      5357.0375    
    173000   0.99770514     0.98928191     7.4977873     -2564.92       -4062.9743      1498.0543     -4062.9743     -5344.3374     -294.79431      1576.1574      5739.3394    
    174000   0.96191468     0.98602319     7.4356853     -2791.2306     -4235.5455      1444.3149     -4235.5455     -5527.0156     -302.80425      1594.2744      5444.247     
    175000   0.95849186     0.9873863      7.404363      -2715.6389     -4154.8145      1439.1755     -4154.8145     -5430.9789     -302.20896      1578.3734      5485.1473    
    176000   0.97350697     1.014462       7.0379289     -2759.406      -4221.1267      1461.7207     -4221.1267     -5427.2095     -302.56628      1508.649       5035.532     
    177000   0.99789436     0.99011719     7.3576913     -2637.0934     -4135.4318      1498.3384     -4135.4318     -5385.2539     -301.36023      1551.1823      5512.0011    
    178000   1.0417794      1.0014193      7.4552198     -2595.3747     -4159.6066      1564.2318     -4159.6066     -5432.9504     -301.45318      1574.797       5661.7387    
    179000   0.97448372     0.99891029     7.4093143     -2673.5481     -4136.7354      1463.1873     -4136.7354     -5419.3823     -301.07842      1583.7253      5532.7221    
    180000   1.0224791      1.0385831      7.7615656     -2584.4234     -4119.6757      1535.2523     -4119.6757     -5461.4617     -295.88413      1637.6702      6011.9867    
    181000   1.0184419      1.0000956      7.1190296     -2665.2917     -4194.4822      1529.1905     -4194.4822     -5398.657      -301.74483      1505.9196      5219.4703    
    182000   1.0322341      0.99758353     7.4387321     -2602.8965     -4152.796       1549.8995     -4152.796      -5416.8833     -299.68701      1563.7743      5635.9556    
    183000   1.0211924      1.0115282      7.5393839     -2659.6306     -4192.951       1533.3204     -4192.951      -5501.7998     -303.44224      1612.291       5690.6997    
    184000   1.0205997      1.0087092      7.5165365     -2566.4121     -4098.8425      1532.4304     -4098.8425     -5380.2985     -304.96242      1586.4184      5758.6132    
    185000   1.0045654      1.0160162      7.6122545     -2645.8034     -4154.1582      1508.3549     -4154.1582     -5463.4987     -302.29687      1611.6373      5785.2356    
    186000   1.0272245      1.0132212      7.4886992     -2594.8068     -4137.1843      1542.3775     -4137.1843     -5417.4632     -300.41331      1580.6922      5699.387     
    187000   0.98090938     0.99638347     7.4819607     -2678.5505     -4151.386       1472.8354     -4151.386      -5451.4173     -296.83025      1596.8616      5608.18      
    188000   0.99774186     0.99691474     7.2376636     -2730.9458     -4229.0552      1498.1094     -4229.0552     -5476.1736     -301.56315      1548.6815      5285.2107    
    189000   1.0029308      0.97713916     7.656353      -2611.3502     -4117.2508      1505.9006     -4117.2508     -5424.4971     -300.44341      1607.6897      5868.5305    
    190000   1.0067297      0.99019243     7.2988298     -2658.5838     -4170.1885      1511.6047     -4170.1885     -5422.1886     -297.36469      1549.3648      5425.318     
    191000   0.96022604     1.0022858      7.2410802     -2806.4392     -4248.2186      1441.7794     -4248.2186     -5509.3686     -301.25788      1562.4078      5213.5013    
    192000   1.0074543      1.0114471      7.6611683     -2593.0958     -4105.7883      1512.6926     -4105.7883     -5435.2875     -302.64495      1632.1441      5892.1182    
    193000   1.005148       1.0031552      7.2913099     -2646.3849     -4155.6147      1509.2297     -4155.6147     -5412.6107     -298.02211      1555.0181      5429.1881    
    194000   0.97742972     0.99596714     7.4342346     -2639.7705     -4107.3812      1467.6107     -4107.3812     -5376.7826     -298.13435      1567.5357      5594.1005    
    195000   1.0441398      1.0270569      7.2511312     -2663.1049     -4230.8808      1567.7759     -4230.8808     -5480.4368     -300.27965      1549.8357      5367.9679    
    196000   0.97879495     0.95842773     7.5026776     -2661.5377     -4131.1983      1469.6606     -4131.1983     -5426.4509     -298.41946      1593.6721      5648.1381    
    197000   1.0410667      1.0250735      7.494531      -2584.7365     -4147.8981      1563.1616     -4147.8981     -5426.702      -299.69792      1578.5018      5715.9164    
    198000   1.0307512      1.0225039      7.292911      -2648.9476     -4196.6206      1547.6729     -4196.6206     -5448.9755     -301.63541      1553.9903      5428.3988    
    199000   1.019436       1.007841       7.327423      -2610.1219     -4140.8051      1530.6831     -4140.8051     -5394.8135     -301.3883       1555.3967      5505.4486    
    200000   1.007773       1.0098377      7.754605      -2628.9871     -4142.1582      1513.1711     -4142.1582     -5484.256      -303.8197       1645.9175      5959.7138    
    201000   1.0385571      1.0192122      7.2638887     -2636.5731     -4195.9666      1559.3935     -4195.9666     -5440.6726     -301.80818      1546.5142      5408.6293    
    202000   0.99035528     1.0018363      7.602892      -2574.6352     -4061.6537      1487.0184     -4061.6537     -5377.3041     -299.71813      1615.3685      5846.0342    
    203000   0.98297694     0.99620544     7.5480019     -2667.3112     -4143.2511      1475.9399     -4143.2511     -5451.134      -294.471        1602.3539      5692.564     
    204000   1.0130393      1.00372        7.6072482     -2594.9939     -4116.0724      1521.0785     -4116.0724     -5429.4466     -303.19957      1616.5738      5830.5002    
    205000   0.96094952     0.99132955     7.7389528     -2630.2636     -4073.1293      1442.8657     -4073.1293     -5421.6725     -298.3241       1646.8673      5941.1014    
    206000   1.020277       1.0009756      7.7032797     -2522.4841     -4054.4299      1531.9458     -4054.4299     -5366.5037     -304.3627       1616.4365      6009.3709    
    207000   1.0054514      0.9922771      7.4952558     -2667.3056     -4176.9908      1509.6852     -4176.9908     -5460.1067     -303.74535      1586.8612      5634.1501    
    208000   0.99292423     0.99221266     7.4052888     -2674.5608     -4165.4365      1490.8757     -4165.4365     -5443.1695     -300.68802      1578.421       5527.251     
    209000   1.0002578      1.0020137      7.5203698     -2614.504      -4116.391       1501.8871     -4116.391      -5415.9679     -301.0309       1600.6078      5714.767     
    210000   1.0068437      1.0278185      7.5892404     -2709.9484     -4221.7242      1511.7758     -4221.7242     -5555.8432     -297.66113      1631.7801      5695.6009    
    211000   0.99143193     0.9869765      7.4621571     -2625.4408     -4114.0758      1488.635      -4114.0758     -5394.5405     -302.50995      1582.9746      5639.356     
    212000   1.0237648      1.0145734      7.1496406     -2680.8954     -4218.0782      1537.1829     -4218.0782     -5435.5525     -299.07883      1516.5531      5237.7703    
    213000   1.0175977      0.99652363     7.3981112     -2628.6316     -4156.5545      1527.9229     -4156.5545     -5431.3676     -302.76546      1577.5786      5565.2304    
    214000   0.99818685     0.99772017     7.6605996     -2598.1735     -4096.9511      1498.7776     -4096.9511     -5411.218      -302.73685      1617.0037      5886.4105    
    215000   1.0208768      1.0056044      7.4511195     -2652.5135     -4185.36        1532.8465     -4185.36       -5467.3845     -301.21529      1583.2398      5600.0585    
    216000   0.99599034     0.97761172     7.1494472     -2691.2867     -4186.7662      1495.4795     -4186.7662     -5430.6715     -300.22379      1544.1291      5227.1648    
    217000   1.0150462      1.0099765      7.2422008     -2649.4093     -4173.5012      1524.0919     -4173.5012     -5411.8519     -297.75459      1536.1054      5371.7724    
    218000   1.0200011      0.98495261     7.5632502     -2667.8517     -4199.3834      1531.5317     -4199.3834     -5506.4012     -298.01991      1605.0377      5708.9119    
    219000   0.9898916      0.98401095     7.4016229     -2598.4257     -4084.748       1486.3222     -4084.748      -5350.9381     -297.95282      1564.1429      5599.3257    
    220000   0.98900642     1.0007367      7.3823427     -2683.9277     -4168.9209      1484.9931     -4168.9209     -5457.8523     -299.27713      1588.2085      5492.4698    
    221000   0.99851434     0.99592572     7.3493376     -2728.608      -4227.8772      1499.2693     -4227.8772     -5500.7082     -300.26085      1573.0918      5411.2343    
    222000   0.98272645     0.9929259      7.3644981     -2696.2828     -4171.8466      1475.5638     -4171.8466     -5427.6845     -301.89337      1557.7314      5460.3507    
    223000   0.98833383     0.99256689     7.3250823     -2648.2467     -4132.2299      1483.9832     -4132.2299     -5380.35       -299.63075      1547.7509      5464.7314    
    224000   1.0540211      1.0251691      7.4738644     -2546.292      -4128.9047      1582.6126     -4128.9047     -5395.7031     -300.98482      1567.7833      5731.4713    
    225000   0.98016046     1.0014768      7.8490712     -2594.7698     -4066.4807      1471.7109     -4066.4807     -5439.3357     -294.86223      1667.7173      6098.5581    
    226000   0.98100506     0.96840014     7.3073786     -2711.4729     -4184.452       1472.9791     -4184.452      -5451.8658     -300.30389      1567.7177      5381.8972    
    227000   1.0163926      1.0003667      7.3734167     -2624.9935     -4151.1069      1526.1135     -4151.1069     -5407.6289     -300.33414      1556.8561      5541.518     
    228000   0.99076217     1.0001636      7.2550177     -2665.6705     -4153.2998      1487.6294     -4153.2998     -5403.5455     -300.93566      1551.1813      5369.7067    
    229000   1.0340786      1.0012502      7.0041941     -2650.0643     -4202.7332      1552.669      -4202.7332     -5400.0166     -295.02375      1492.3072      5107.5105    
    230000   0.98191634     1.0065861      7.5049267     -2602.984      -4077.3314      1474.3474     -4077.3314     -5372.9725     -301.50356      1597.1447      5709.1828    
    231000   1.0361929      1.0062605      7.3870062     -2585.2966     -4141.1402      1555.8437     -4141.1402     -5401.8312     -300.76591      1561.4569      5596.266     
    232000   0.93005806     0.96188488     7.3526979     -2721.2644     -4117.7466      1396.4822     -4117.7466     -5391.8382     -298.49161      1572.5832      5422.2996    
    233000   1.007379       1.005109       7.5538273     -2577.9345     -4090.5141      1512.5796     -4090.5141     -5386.3357     -299.93391      1595.7555      5788.3927    
    234000   1.0030465      0.99243888     7.3320683     -2615.0715     -4121.1457      1506.0743     -4121.1457     -5373.8499     -293.0977       1545.8019      5505.644     
    235000   1.0236992      1.0049441      7.2980696     -2653.1463     -4190.2306      1537.0844     -4190.2306     -5432.2968     -297.61928      1539.6855      5429.9135    
    236000   1.0233128      1.0058206      7.5465552     -2584.1357     -4120.64        1536.5042     -4120.64       -5428.4875     -292.02663      1599.8742      5774.1372    
    237000   1.0075667      1.016854       7.23544       -2688.3025     -4201.1639      1512.8614     -4201.1639     -5443.4137     -301.96888      1544.2186      5325.3912    
    238000   1.0236421      0.98984006     7.5267383     -2617.6166     -4154.6152      1536.9986     -4154.6152     -5450.4229     -291.48691      1587.2946      5718.7079    
    239000   1.0216107      1.01668        7.8296249     -2512.0068     -4045.9552      1533.9484     -4045.9552     -5384.3431     -298.86187      1637.2498      6159.7832    
    240000   1.0257625      1.0329733      7.1250691     -2609.9315     -4150.1138      1540.1823     -4150.1138     -5366.409      -298.90561      1515.2008      5281.5197    
    241000   1.0098952      1.0034366      7.3948091     -2688.1229     -4204.4805      1516.3576     -4204.4805     -5493.9776     -298.63195      1588.129       5502.0818    
    242000   0.99492905     0.99168696     7.5586716     -2673.9742     -4167.8601      1493.886      -4167.8601     -5466.8989     -301.48402      1600.5228      5697.7184    
    243000   1.0343508      1.0332755      7.3610049     -2614.8765     -4167.9543      1553.0778     -4167.9543     -5421.6065     -302.39812      1556.0503      5537.888     
    244000   0.98188543     0.97585657     6.9647082     -2742.9043     -4217.2052      1474.301      -4217.2052     -5405.7832     -303.01049      1491.5884      4970.9373    
    245000   1.0064871      1.0027514      7.317897      -2631.2968     -4142.5371      1511.2404     -4142.5371     -5402.157      -301.71305      1561.3329      5473.7231    
    246000   1.014979       0.97351298     7.663103      -2606.2166     -4130.2075      1523.991      -4130.2075     -5437.7676     -300.38424      1607.9443      5881.1402    
    247000   0.98423288     0.99837831     7.3776641     -2694.6526     -4172.4783      1477.8257     -4172.4783     -5438.1397     -305.20179      1570.8632      5476.563     
    248000   0.98781399     0.99084539     7.2932171     -2682.0684     -4165.2711      1483.2027     -4165.2711     -5431.9869     -299.69054      1566.4064      5395.617     
    249000   0.97130076     0.9646267      7.4965344     -2671.7957     -4130.2038      1458.4081     -4130.2038     -5421.1589     -301.0159       1591.971       5631.0761    
    250000   1.0039705      1.0146891      7.7151421     -2607.9799     -4115.4416      1507.4617     -4115.4416     -5456.8286     -298.88769      1640.2747      5937.0133    
    251000   0.97098637     0.97997187     7.0667333     -2719.0496     -4176.9856      1457.936      -4176.9856     -5384.0525     -299.4165       1506.4834      5107.7912    
    252000   1.032043       1.0170178      7.3597869     -2573.4397     -4123.0523      1549.6125     -4123.0523     -5386.2862     -297.59153      1560.8254      5577.9758    
    253000   1.0020961      1.0023859      7.5265859     -2588.0216     -4092.6688      1504.6472     -4092.6688     -5382.166      -297.41268      1586.9099      5748.1341    
    254000   0.99942232     0.98949457     7.024962      -2729.5018     -4230.1344      1500.6326     -4230.1344     -5429.4956     -301.32014      1500.6813      5051.0746    
    255000   1.0152516      0.98143592     7.5565367     -2609.9857     -4134.3859      1524.4002     -4134.3859     -5420.7681     -299.12582      1585.5081      5759.3424    
    256000   0.92437557     0.94976524     7.2459246     -2758.8685     -4146.8184      1387.9499     -4146.8184     -5410.9059     -302.65672      1566.7442      5266.4376    
    257000   1.0030545      1.0115124      7.0563075     -2763.0246     -4269.1109      1506.0864     -4269.1109     -5485.626      -303.66547      1520.1805      5052.269     
    258000   1.0326595      1.0049127      7.668216      -2549.7709     -4100.3091      1550.5382     -4100.3091     -5431.8784     -296.68759      1628.2569      5943.2488    
    259000   1.0423239      1.0232803      7.3308995     -2550.9299     -4115.9791      1565.0493     -4115.9791     -5361.4918     -303.08482      1548.5975      5568.4911    
    260000   1.0378024      1.0237873      7.5686799     -2625.1377     -4183.3981      1558.2603     -4183.3981     -5489.4811     -301.0833       1607.1664      5757.6397    
    261000   1.0447738      1.0245973      7.7462789     -2582.515      -4151.2429      1568.7279     -4151.2429     -5485.3136     -301.41184      1635.4825      5996.9641    
    262000   0.99065256     1.0141362      7.6247018     -2603.469      -4090.9338      1487.4648     -4090.9338     -5411.3348     -297.79547      1618.1965      5841.3561    
    263000   0.99081755     0.99517944     7.1220883     -2727.4078     -4215.1203      1487.7126     -4215.1203     -5436.934      -302.40349      1524.2172      5160.742     
    264000   1.0299908      1.0237642      7.3901688     -2623.1014     -4169.6326      1546.5311     -4169.6326     -5448.369      -297.96273      1576.6991      5561.9639    
    265000   0.95259508     0.98747425     7.4985094     -2677.7933     -4108.1148      1430.3215     -4108.1148     -5394.8447     -301.74813      1588.4781      5627.2659    
    266000   0.98431932     0.99672334     7.3377391     -2630.2646     -4108.2201      1477.9555     -4108.2201     -5383.0582     -295.7837       1570.6218      5496.7317    
    267000   1.0154431      1.0156246      8.0008419     -2538.8014     -4063.4892      1524.6878     -4063.4892     -5451.0798     -297.25699      1684.8476      6322.6219    
    268000   1.0110307      1.0125762      7.4500341     -2586.9188     -4104.9813      1518.0626     -4104.9813     -5388.4426     -297.65836      1581.1196      5664.4511    
    269000   0.95769659     0.99826556     7.3387678     -2733.6555     -4171.637       1437.9814     -4171.637      -5435.5067     -303.408        1567.2777      5394.48      
    270000   1.0279526      1.0257332      7.6659435     -2601.5475     -4145.0182      1543.4708     -4145.0182     -5475.9762     -300.30046      1631.2585      5888.9553    
    271000   1.0197832      1.0124295      7.4982892     -2590.6181     -4121.8225      1531.2044     -4121.8225     -5411.573      -301.43468      1591.1852      5714.1973    
    272000   1.0078399      0.99650536     7.3525251     -2667.1518     -4180.4234      1513.2716     -4180.4234     -5443.0035     -303.24928      1565.8294      5476.2208    
    273000   1.0214136      1.0101971      7.2527629     -2639.8208     -4173.4733      1533.6525     -4173.4733     -5415.2973     -302.18081      1544.0047      5393.059     
    274000   1.0139456      1.0093754      7.361391      -2626.5178     -4148.9572      1522.4394     -4148.9572     -5411.3559     -300.87014      1563.2688      5526.6743    
    275000   1.0220469      1.040454       7.7535662     -2573.5535     -4108.1568      1534.6034     -4108.1568     -5452.582      -300.12711      1644.5523      6013.9968    
    276000   0.97983004     0.9839986      7.2500294     -2721.3875     -4192.6023      1471.2148     -4192.6023     -5456.5007     -300.85699      1564.7554      5308.4649    
    277000   1.0170551      1.0026406      7.4051851     -2608.541      -4135.6492      1527.1082     -4135.6492     -5401.0931     -304.88091      1570.3248      5593.1559    
    278000   0.97656635     0.97866836     7.2242655     -2690.0753     -4156.3897      1466.3144     -4156.3897     -5394.9373     -297.43864      1535.9863      5311.242     
    279000   1.0030781      0.99019958     7.2124938     -2653.6651     -4159.7868      1506.1218     -4159.7868     -5379.5304     -302.02521      1521.7687      5334.6144    
    280000   1.0327407      1.0504376      7.9014744     -2545.2229     -4095.883       1550.6601     -4095.883      -5453.5115     -295.63794      1653.2664      6206.1448    
    281000   0.99555909     0.97564375     7.7185945     -2614.0186     -4108.8506      1494.832      -4108.8506     -5440.3925     -303.17774      1634.7197      5934.7984    
    282000   0.98512675     1.000876       7.1022592     -2743.573      -4222.7408      1479.1678     -4222.7408     -5438.5447     -300.29951      1516.1034      5122.6149    
    283000   1.0252724      1.0174388      7.4837852     -2667.5241     -4206.9707      1539.4465     -4206.9707     -5508.4658     -300.98963      1602.4848      5621.2271    
    284000   1.0005495      1.0308884      7.2769807     -2709.4304     -4211.7555      1502.3251     -4211.7555     -5465.8206     -301.64221      1555.7073      5350.2721    
    285000   1.0070575      1.0045364      7.5823525     -2587.1054     -4099.2023      1512.0968     -4099.2023     -5404.481      -294.31983      1599.5985      5810.8152    
    286000   0.95170129     1.0063761      7.4645729     -2747.106      -4176.0855      1428.9795     -4176.0855     -5480.0947     -299.08203      1603.0913      5520.3664    
    287000   0.9606493      0.97869315     7.2630597     -2786.1689     -4228.5838      1442.4149     -4228.5838     -5496.0941     -298.86824      1566.3785      5258.1153    
    288000   1.0191921      1.0013345      7.6156968     -2565.8754     -4096.1923      1530.3169     -4096.1923     -5405.118      -296.64281      1605.5684      5868.976     
    289000   1.0081352      1.0180159      7.4257117     -2604.048      -4117.763       1513.715      -4117.763      -5393.8667     -301.6991       1577.8028      5620.3833    
    290000   1.0385363      1.0183475      7.5559078     -2573.467      -4132.8293      1559.3623     -4132.8293     -5426.807      -303.29928      1597.277       5795.1645    
    291000   1.0083001      1.0140267      6.9935256     -2690.2307     -4204.1933      1513.9626     -4204.1933     -5400.8025     -302.65504      1499.2642      5055.528     
    292000   1.0059724      1.0091581      7.5495341     -2569.7954     -4080.2629      1510.4675     -4080.2629     -5382.7861     -293.98435      1596.5075      5791.7769    
    293000   1.0377314      1.0304116      7.6554524     -2558.8175     -4116.9711      1558.1537     -4116.9711     -5429.588      -299.94164      1612.5585      5920.0657    
    294000   0.9934228      1.0246214      7.506251      -2670.0941     -4161.7184      1491.6243     -4161.7184     -5450.6271     -301.32488      1590.2336      5643.5395    
    295000   1.0178229      0.98927858     7.5101099     -2623.8336     -4152.0947      1528.2611     -4152.0947     -5440.4563     -300.38165      1588.7432      5694.0739    
    296000   1.0203374      1.0350566      7.6765312     -2554.1261     -4086.1628      1532.0367     -4086.1628     -5395.3825     -294.44439      1603.6641      5948.1032    
    297000   1.0451519      1.0223843      7.2468316     -2603.99       -4173.2856      1569.2956     -4173.2856     -5403.3073     -301.25698      1531.2787      5422.3207    
    298000   0.95460962     0.97867308     7.7130536     -2652.9713     -4086.3177      1433.3463     -4086.3177     -5432.6662     -304.48462      1650.8331      5889.7087    
    299000   1.0254306      1.0249551      7.3083388     -2561.3091     -4100.9932      1539.6841     -4100.9932     -5341.3488     -295.72585      1536.0815      5533.1245    
    300000   0.9744917      1.0177994      7.395243      -2719.9281     -4183.1274      1463.1993     -4183.1274     -5464.554      -301.10403      1582.5306      5470.7573    
    301000   0.96096534     0.9761806      7.5113181     -2704.3644     -4147.2539      1442.8895     -4147.2539     -5450.0282     -300.60637      1603.3806      5614.8812    
    302000   1.0082997      0.99584217     7.7025955     -2556.9801     -4070.942       1513.9619     -4070.942      -5397.1491     -296.6503       1622.8574      5974.117     
    303000   1.0590474      1.0146085      7.252196      -2652.8829     -4243.0426      1590.1597     -4243.0426     -5490.0012     -297.72798      1544.6866      5379.3691    
    304000   1.0090726      1.0083722      7.6923329     -2558.4861     -4073.6086      1515.1225     -4073.6086     -5382.1074     -303.40267      1611.9014      5961.2446    
    305000   0.98479969     0.98863893     7.5885794     -2637.164      -4115.8407      1478.6767     -4115.8407     -5447.6345     -300.00067      1631.7945      5767.6533    
    306000   1.0306753      1.0060225      7.2932623     -2677.4133     -4224.9723      1547.559      -4224.9723     -5474.9227     -298.14563      1548.0961      5400.3221    
    307000   0.9779865      0.98593374     7.332201      -2715.7254     -4184.1721      1468.4467     -4184.1721     -5464.18       -300.0302       1580.0381      5405.1371    
    308000   1.0088471      1.0335194      7.4815798     -2657.1653     -4171.9493      1514.784      -4171.9493     -5463.7299     -301.72942      1593.51        5629.1433    
    309000   1.0581712      1.0296132      7.7081793     -2572.6421     -4161.4862      1588.8441     -4161.4862     -5490.628      -301.23662      1630.3784      5964.6394    
    310000   1.0791212      1.0536461      7.2045835     -2553.0563     -4173.3567      1620.3004     -4173.3567     -5384.6148     -300.48377      1511.7418      5426.4619    
    311000   1.0573424      1.0229067      7.3361324     -2532.543      -4120.1425      1587.5996     -4120.1425     -5360.9387     -299.13712      1539.9332      5592.6738    
    312000   0.99065282     0.98827777     7.538964      -2631.2584     -4118.7236      1487.4652     -4118.7236     -5417.1158     -300.39268      1598.7849      5718.6067    
    313000   0.98506082     1.0072645      7.8037158     -2529.4778     -4008.5466      1479.0688     -4008.5466     -5343.0974     -301.95815      1636.5089      6113.6162    
    314000   1.0188674      1.0117825      7.680021      -2594.5821     -4124.4116      1529.8294     -4124.4116     -5449.3663     -302.15504      1627.1097      5911.5123    
    315000   0.99413306     1.012456       7.5739733     -2595.7487     -4088.4395      1492.6908     -4088.4395     -5393.8962     -300.60103      1606.0577      5792.8914    
    316000   0.98866069     0.99312746     7.265943      -2642.377      -4126.851       1484.474      -4126.851      -5377.1401     -301.78457      1552.0737      5405.1007    
    317000   0.95077195     0.99120487     7.5263588     -2690.5019     -4118.086       1427.5841     -4118.086      -5422.1893     -302.673        1606.7763      5645.4023    
    318000   1.0039979      1.0043151      7.7332372     -2508.005      -4015.5079      1507.5029     -4015.5079     -5347.1922     -294.2059       1625.8903      6057.0297    
    319000   0.99125661     1.0128655      7.3996789     -2632.5482     -4120.92        1488.3718     -4120.92       -5394.3343     -301.34014      1574.7545      5563.0502    
    320000   1.0219614      1.0196885      7.2901419     -2671.7285     -4206.2035      1534.475      -4206.2035     -5452.6884     -305.61807      1552.103       5402.5509    
    321000   0.9714358      0.9892607      7.5077919     -2720.0197     -4178.6306      1458.6109     -4178.6306     -5474.7094     -299.83497      1595.9138      5595.3205    
    322000   0.96735631     0.99435478     7.1804858     -2715.3679     -4167.8534      1452.4855     -4167.8534     -5406.2319     -300.95351      1539.332       5237.4607    
    323000   0.97938905     0.99519575     7.3366355     -2712.1055     -4182.6582      1470.5527     -4182.6582     -5445.4325     -298.71233      1561.4867      5413.6685    
    324000   1.0028475      0.99160832     7.4521484     -2631.3048     -4137.0803      1505.7755     -4137.0803     -5419.8304     -298.23601      1580.9861      5622.4067    
    325000   1.0274599      1.0083486      7.1956561     -2605.1353     -4147.8663      1542.7311     -4147.8663     -5367.106      -300.10961      1519.3493      5364.4953    
    326000   0.99910707     0.98784306     7.5905485     -2644.9947     -4145.154       1500.1593     -4145.154      -5445.6353     -306.18135      1606.6627      5762.0034    
    327000   0.93621026     0.95981943     7.039745      -2801.8182     -4207.5379      1405.7197     -4207.5379     -5435.6956     -303.20276      1531.3605      4995.1313    
    328000   1.0179351      0.9916163      7.6231645     -2571.9973     -4100.4268      1528.4295     -4100.4268     -5406.9994     -298.50186      1605.0744      5871.1251    
    329000   0.99050834     0.99555281     7.6415228     -2589.6669     -4076.9151      1487.2483     -4076.9151     -5389.1117     -296.33016      1608.5267      5873.7885    
    330000   1.0173452      1.0164884      7.089754      -2720.2045     -4247.7483      1527.5438     -4247.7483     -5458.6417     -298.73736      1509.6307      5132.133     
    331000   0.97082425     0.99640572     7.2525255     -2721.2988     -4178.9914      1457.6926     -4178.9914     -5431.4081     -299.92741      1552.3441      5311.3182    
    332000   1.0277137      0.9963505      7.6866005     -2449.6516     -3992.7638      1543.1122     -3992.7638     -5297.5705     -297.47721      1602.2839      6063.73      
    333000   1.0043049      0.98401937     7.0742439     -2714.3751     -4222.3389      1507.9638     -4222.3389     -5438.8944     -301.39455      1517.9501      5120.7841    
    334000   1.0056602      0.97199208     7.7025123     -2654.2249     -4164.2236      1509.9987     -4164.2236     -5485.102      -300.21392      1621.0924      5876.7801    
    335000   0.99792376     0.9808831      7.497701      -2679.9534     -4178.3359      1498.3825     -4178.3359     -5473.9548     -301.34452      1596.9634      5624.2104    
    336000   1.0399925      1.0277292      7.7932102     -2535.9821     -4097.5309      1561.5488     -4097.5309     -5424.7276     -299.5722       1626.7689      6095.4763    
    337000   0.9550124      0.95894643     7.3362113     -2708.552      -4142.5032      1433.9511     -4142.5032     -5409.2873     -302.41573      1569.1999      5416.752     
    338000   1.0044427      0.99332481     7.4635196     -2640.1631     -4148.3339      1508.1707     -4148.3339     -5419.0038     -303.06052      1573.7305      5626.1428    
    339000   1.0156013      1.0241444      7.5500751     -2633.8833     -4158.8087      1524.9254     -4158.8087     -5446.7667     -303.6138       1591.5718      5728.2881    
    340000   0.98550836     0.97357527     7.4645083     -2617.6668     -4097.4076      1479.7408     -4097.4076     -5387.9317     -297.14904      1587.6731      5649.7341    
    341000   1.0179376      1.0048593      7.3602303     -2651.4969     -4179.9303      1528.4334     -4179.9303     -5453.8705     -302.94606      1576.8862      5500.4097    
    342000   0.98895353     1.0079795      7.3416597     -2638.4731     -4123.3869      1484.9137     -4123.3869     -5379.1527     -303.04257      1558.8084      5492.8654    
    343000   0.99696929     0.98418689     7.3483267     -2643.8095     -4140.7589      1496.9494     -4140.7589     -5398.856      -300.76448      1558.8615      5494.9131    
    344000   1.0328898      1.0117575      7.7733501     -2591.8157     -4142.6997      1550.884      -4142.6997     -5498.5085     -299.02379      1654.8325      6017.6465    
    345000   1.0192962      1.0192321      7.5178466     -2635.4611     -4165.9344      1530.4732     -4165.9344     -5466.0541     -299.68117      1599.8009      5691.0152    
    346000   0.97794862     0.99725679     7.4698291     -2697.7257     -4166.1156      1468.3899     -4166.1156     -5455.8436     -297.1104       1586.8385      5575.5684    
    347000   0.9619852      0.96448677     7.338809      -2720.5099     -4164.9307      1444.4208     -4164.9307     -5444.1781     -299.19302      1578.4404      5407.6713    
    348000   0.96995644     0.99660601     7.6634243     -2657.8233     -4114.2129      1456.3896     -4114.2129     -5431.8171     -302.50384      1620.1081      5829.8893    
    349000   0.99295264     1.0088465      7.3974574     -2630.1048     -4121.0231      1490.9184     -4121.0231     -5382.0768     -298.78224      1559.8359      5563.0332    
    350000   1.0465716      1.0233196      7.2044351     -2659.8156     -4231.2429      1571.4273     -4231.2429     -5459.0798     -304.89104      1532.7279      5319.5383    
    351000   0.96383696     1.0024085      7.5498226     -2713.2615     -4160.4627      1447.2012     -4160.4627     -5464.6083     -301.42627      1605.5719      5648.6303    
    352000   1.0035396      0.99806241     7.522848      -2643.0077     -4149.8224      1506.8147     -4149.8224     -5442.0693     -300.27219      1592.5191      5689.008     
    353000   0.99298279     1.0039067      7.4966207     -2603.617      -4094.5806      1490.9637     -4094.5806     -5376.5856     -301.53396      1583.539       5699.3504    
    354000   0.9992193      1.016989       7.5434444     -2615.858      -4116.1858      1500.3278     -4116.1858     -5408.8889     -303.88697      1596.5901      5738.9695    
    355000   0.94753179     0.97575644     7.1776487     -2764.1382     -4186.8572      1422.719      -4186.8572     -5429.3549     -302.02333      1544.5211      5185.5481    
    356000   0.98601696     0.99014488     7.2736247     -2655.8976     -4136.402       1480.5045     -4136.402      -5383.8983     -305.60457      1553.1008      5400.0881    
[...]
    396000   0.90518795     0.94492241     7.6203906     -2770.2257     -4129.3654      1359.1397     -4129.3654     -5462.6782     -301.10187      1634.4147      5669.8244    
    397000   0.98029596     0.99867348     7.7041482     -2577.0694     -4048.9837      1471.9144     -4048.9837     -5391.017      -302.67343      1644.7067      5955.7475    
    398000   1.0030815      1.0168589      7.5108102     -2619.2608     -4125.3876      1506.1268     -4125.3876     -5422.5973     -296.80978      1594.0195      5699.4223    
    399000   1.0047451      0.99787858     7.2388569     -2684.7536     -4193.3784      1508.6248     -4193.3784     -5427.2697     -299.86211      1533.7534      5332.7246    
    400000   0.99867283     0.99100243     7.460634      -2624.6124     -4124.1197      1499.5073     -4124.1197     -5405.4273     -299.80296      1581.1106      5638.4975    
    401000   0.97300609     0.99967306     7.5011943     -2634.1922     -4095.1609      1460.9686     -4095.1609     -5387.2531     -301.63576      1593.728       5673.8407    
    402000   1.0098855      0.98087364     7.2601533     -2662.8284     -4179.1715      1516.343      -4179.1715     -5444.4333     -299.68559      1564.9474      5378.2368    
    403000   1.0129007      0.99664227     7.5567416     -2560.0921     -4080.9625      1520.8704     -4080.9625     -5390.2566     -299.29032      1608.5844      5809.4628    
    404000   1.0226868      0.98734622     7.7799318     -2513.6163     -4049.1805      1535.5642     -4049.1805     -5382.285      -301.52846      1634.633       6103.1355    
    405000   0.9701287      1.0162037      7.1963889     -2736.0183     -4192.6666      1456.6482     -4192.6666     -5437.2898     -300.17886      1544.8021      5234.4239    
    406000   0.97121506     0.98058839     7.4193593     -2652.3079     -4110.5873      1458.2794     -4110.5873     -5401.3575     -298.20999      1588.9802      5565.0877    
    407000   0.97032669     0.98151281     7.0390861     -2725.9382     -4182.8838      1456.9455     -4182.8838     -5384.4775     -300.62485      1502.2186      5070.2815    
    408000   1.013481       1.0197645      7.2638767     -2665.611      -4187.3527      1521.7417     -4187.3527     -5433.681      -296.56025      1542.8885      5379.5782    
    409000   1.0567675      1.0296677      7.1832605     -2576.1525     -4162.8889      1586.7365     -4162.8889     -5386.7055     -299.50302      1523.3196      5379.7492    
    410000   0.99810218     1.0035084      7.2170371     -2717.6657     -4216.3162      1498.6504     -4216.3162     -5463.5722     -303.70564      1550.9616      5275.6456    
    411000   0.99863708     1.0025904      7.4467081     -2685.3783     -4184.8319      1499.4536     -4184.8319     -5466.8035     -296.4028       1578.3743      5562.3078    
    412000   1.005123       1.0018798      7.3824344     -2669.5467     -4178.7389      1509.1922     -4178.7389     -5466.8865     -301.4226       1589.5702      5506.9523    
    413000   1.0035964      0.98105072     7.5378764     -2649.2785     -4156.1786      1506.9001     -4156.1786     -5453.2629     -301.75264      1598.8369      5699.3821    
    414000   1.0049433      1.0205554      7.1831623     -2699.5436     -4208.4659      1508.9223     -4208.4659     -5437.8271     -301.14044      1530.5017      5256.2494    
    415000   1.0404814      1.052532       7.4622499     -2586.0809     -4148.3637      1562.2828     -4148.3637     -5419.6577     -297.33054      1568.6246      5678.8187    
    416000   0.99006042     1.0076964      7.5294388     -2681.6203     -4168.1961      1486.5757     -4168.1961     -5471.3965     -299.41947      1602.6199      5657.6951    
    417000   0.96603274     0.99412404     7.524161      -2629.133      -4079.6312      1450.4982     -4079.6312     -5371.2179     -298.90033      1590.4871      5704.3369    
    418000   1.0406         1.0176943      7.2106371     -2621.28       -4183.7408      1562.4609     -4183.7408     -5418.046      -301.67912      1535.9843      5364.943     
    419000   1.0636633      1.0328856      7.8364642     -2477.6587     -4074.7491      1597.0904     -4074.7491     -5432.7009     -299.48666      1657.4384      6201.7062    
    420000   1.0337806      1.0247153      7.6075578     -2542.325      -4094.5467      1552.2216     -4094.5467     -5407.0702     -295.21245      1607.736       5883.512     
    421000   0.98112373     0.99092205     7.2050187     -2725.0538     -4198.2111      1473.1573     -4198.2111     -5437.2585     -303.25818      1542.3055      5254.9464    
    422000   0.99849042     1.0147704      7.2284869     -2702.5366     -4201.7699      1499.2334     -4201.7699     -5442.9859     -295.61208      1536.828       5303.4561    
    423000   1.0108653      1.0117389      7.2403469     -2647.1952     -4165.0094      1517.8142     -4165.0094     -5409.3438     -299.92449      1544.2588      5371.9332    
    424000   0.97531919     0.99815773     7.1578796     -2742.481      -4206.9228      1464.4418     -4206.9228     -5450.7148     -291.15666      1534.9487      5185.3098    
    425000   1.0009113      0.99055104     7.5163355     -2621.4405     -4124.3088      1502.8683     -4124.3088     -5420.1976     -301.46941      1597.3582      5703.3622    
    426000   0.97139051     0.97384432     7.4844416     -2672.6865     -4131.2294      1458.5428     -4131.2294     -5412.6303     -305.74477      1587.1457      5616.7918    
    427000   0.97513596     1.0059466      7.2771391     -2690.0634     -4154.2301      1464.1666     -4154.2301     -5397.3025     -300.02421      1543.0966      5369.8146    
    428000   0.99994894     1.0349805      7.323508      -2696.4233     -4197.8467      1501.4233     -4197.8467     -5466.9819     -300.95123      1570.0865      5414.8111    
    429000   0.98559339     0.98984479     7.5707845     -2678.8944     -4158.7629      1479.8685     -4158.7629     -5460.0016     -301.05209      1602.2908      5706.2139    
    430000   1.0021658      1.0152442      7.212123      -2689.3651     -4194.117       1504.7519     -4194.117      -5417.5619     -300.5204       1523.9653      5298.5036    
    431000   0.9859513      0.98327022     7.3076572     -2708.59       -4188.9959      1480.4059     -4188.9959     -5452.0428     -300.45565      1563.5025      5385.0887    
    432000   0.99939215     0.99961464     7.132294      -2769.3457     -4269.933       1500.5873     -4269.933      -5501.3624     -298.14704      1529.5765      5130.1075    
    433000   0.98256331     0.97985108     7.4546533     -2692.9392     -4168.2581      1475.3188     -4168.2581     -5470.1047     -299.65228      1601.4989      5563.5466    
    434000   1.0190013      1.0130572      7.115516      -2726.5089     -4256.5394      1530.0305     -4256.5394     -5470.005      -301.6775       1515.1431      5154.3616    
    435000   0.96881214     0.97962744     7.6968612     -2706.7046     -4161.3761      1454.6714     -4161.3761     -5500.8553     -304.42392      1643.9032      5818.0414    
    436000   1.0204076      0.99967466     7.4853432     -2622.6793     -4154.8214      1532.1421     -4154.8214     -5438.1751     -301.52322      1584.8769      5667.7975    
    437000   0.9602827      0.9824548      7.1912704     -2804.9419     -4246.8064      1441.8645     -4246.8064     -5493.0147     -302.67971      1548.888       5159.8313    
    438000   0.97398392     0.97409584     7.2243132     -2715.6931     -4178.13        1462.4369     -4178.13       -5409.3734     -305.50271      1536.7461      5285.6771    
    439000   1.027418       1.0328579      7.4512724     -2590.2901     -4132.9583      1542.6682     -4132.9583     -5409.679      -302.18204      1578.9027      5662.4512    
    440000   1.0089315      1.0099508      7.261848      -2694.5709     -4209.4816      1514.9107     -4209.4816     -5451.8871     -303.16746      1545.573       5348.3712    
    441000   1.0275335      1.000452       7.4137051     -2596.5569     -4139.3984      1542.8415     -4139.3984     -5409.6668     -300.82145      1571.0898      5614.5764    
    442000   0.97274476     0.97481656     7.3383427     -2706.275      -4166.8513      1460.5763     -4166.8513     -5429.6847     -302.096        1564.9294      5421.3897    
    443000   0.98597978     1.00864        7.5305143     -2670.484      -4150.9327      1480.4486     -4150.9327     -5454.8214     -298.45625      1602.345       5670.0226    
    444000   0.98505012     0.97742767     7.5626404     -2700.2234     -4179.2761      1479.0528     -4179.2761     -5491.3393     -300.82728      1612.8905      5675.8649    
    445000   0.99048295     0.98703901     7.5173959     -2646.757      -4133.9671      1487.2101     -4133.9671     -5429.6009     -300.27061      1595.9044      5679.2202    
    446000   1.0234667      1.0285081      7.6223705     -2634.7188     -4171.4541      1536.7352     -4171.4541     -5485.2557     -298.62148      1612.4231      5807.5241    
    447000   0.99509541     1.0036025      7.5012689     -2660.0826     -4154.2184      1494.1358     -4154.2184     -5460.6104     -297.73784      1604.1298      5648.0329    
    448000   1.0141826      1.03616        7.884815      -2543.2539     -4066.0492      1522.7952     -4066.0492     -5410.7271     -298.7717       1643.4496      6189.6624    
    449000   0.99197772     1.0068986      7.4714442     -2668.3939     -4157.8484      1489.4545     -4157.8484     -5445.5101     -299.81353      1587.4752      5606.6889    
    450000   0.99425986     1.0016331      7.4528525     -2666.3432     -4159.2244      1492.8812     -4159.2244     -5442.8161     -299.70295      1583.2946      5588.1482    
    451000   1.0233869      1.0356621      7.43433       -2579.2014     -4115.8169      1536.6155     -4115.8169     -5377.1819     -303.62747      1564.9925      5654.7752    
    452000   0.99005193     0.99349064     7.3224992     -2675.4881     -4162.0511      1486.563      -4162.0511     -5426.9113     -302.88752      1567.7478      5434.6291    
    453000   0.97575373     0.99418147     7.4385058     -2692.5152     -4157.6094      1465.0942     -4157.6094     -5439.0799     -300.92815      1582.3987      5546.0864    
    454000   1.0173326      1.0196667      7.4125341     -2634.4948     -4162.0196      1527.5249     -4162.0196     -5435.096      -298.39852      1571.4748      5575.3416    
    455000   1.0104437      1.0123523      7.2972064     -2613.3523     -4130.5336      1517.1813     -4130.5336     -5385.3886     -296.099        1550.954       5468.7514    
    456000   0.99327023     0.99798554     7.6167852     -2620.1937     -4111.5889      1491.3952     -4111.5889     -5439.5185     -300.83779      1628.7674      5815.8632    
    457000   1.0066659      1.0222192      7.6095831     -2552.1479     -4063.6567      1511.5088     -4063.6567     -5364.574      -299.5929       1600.5102      5875.9323    
    458000   1.0279117      1.0226225      7.6100893     -2607.1349     -4150.5443      1543.4095     -4150.5443     -5472.1832     -294.89719      1616.5361      5821.5059    
    459000   1.003562       0.9873073      7.6520093     -2630.1009     -4136.9491      1506.8483     -4136.9491     -5453.6814     -300.84886      1617.5811      5844.969     
    460000   0.97193837     1.0103598      7.5855729     -2640.3957     -4099.7611      1459.3655     -4099.7611     -5399.4529     -301.09587      1600.7877      5761.0917    
    461000   1.0107674      0.9852055      7.4284953     -2603.5865     -4121.2538      1517.6673     -4121.2538     -5395.6828     -304.08177      1578.5107      5623.9278    
    462000   0.97465002     0.97663378     6.8070889     -2794.7381     -4258.1751      1463.437      -4258.1751     -5420.62       -299.21599      1461.6609      4744.5306    
    463000   1.0368213      1.0235293      7.3044416     -2602.1437     -4158.9309      1556.7871     -4158.9309     -5406.3112     -299.95079      1547.3312      5487.9735    
    464000   0.98065727     0.98561492     7.5103328     -2615.924      -4088.3809      1472.4569     -4088.3809     -5381.3789     -292.97903      1585.9771      5702.2304    
    465000   1.0159941      1.0031474      7.0118246     -2745.0128     -4270.528       1525.5152     -4270.528      -5476.3406     -299.49911      1505.3117      5021.0131    
    466000   0.96715429     1.0070949      7.389573      -2695.7184     -4147.9005      1452.1822     -4147.9005     -5424.7859     -298.69877      1575.5842      5488.6871    
    467000   1.0213136      1.0228879      7.5078705     -2589.9416     -4123.444       1533.5024     -4123.444      -5418.2283     -300.96853      1595.7528      5725.4857    
    468000   1.0038472      1.0022199      7.2675209     -2650.5387     -4157.8153      1507.2766     -4157.8153     -5404.8948     -299.14049      1546.22        5398.6866    
    469000   1.0257993      1.0072805      7.4931349     -2658.3188     -4198.5564      1540.2376     -4198.5564     -5495.236      -302.15394      1598.8335      5640.7879    
    470000   1.0253471      1.0043329      7.1744297     -2635.9112     -4175.4698      1539.5587     -4175.4698     -5400.4215     -301.28377      1526.2354      5310.2099    
    471000   1.0015975      1.0182628      7.3358503     -2607.381      -4111.2797      1503.8987     -4111.2797     -5366.807      -299.29354      1554.8208      5517.5232    
    472000   1.0428641      1.022741       7.6765284     -2509.5198     -4075.3802      1565.8604     -4075.3802     -5382.8182     -296.33243      1603.7705      5992.7064    
    473000   1.0258223      1.0018553      7.6640169     -2559.1207     -4099.3929      1540.2722     -4099.3929     -5419.3335     -302.96178      1622.9024      5929.2482    
    474000   1.0076762      1.0005176      7.4122051     -2630.728      -4143.7539      1513.0259     -4143.7539     -5414.8328     -304.83876      1575.9177      5578.7439    
    475000   1.0041951      1.0148502      7.376955      -2651.1045     -4158.9034      1507.7989     -4158.9034     -5426.2738     -300.89783      1568.2682      5519.3259    
    476000   1.0091291      1.0309009      7.7145143     -2606.5017     -4121.709       1515.2073     -4121.709      -5453.8764     -300.85427      1633.0217      5937.7962    
    477000   1.0349759      1.0248414      7.1464324     -2640.4337     -4194.4501      1554.0164     -4194.4501     -5404.436      -301.44488      1511.4308      5274.6786    
    478000   1.0246987      1.0089521      7.5868677     -2596.5127     -4135.0978      1538.5851     -4135.0978     -5433.4368     -299.76893      1598.1079      5806.4087    
    479000   0.9683963      0.9985421      7.5008177     -2731.9        -4185.9471      1454.0471     -4185.9471     -5479.3719     -304.27653      1597.7014      5575.7158    
    480000   1.0242285      0.99627114     7.558722      -2562.9794     -4100.8585      1537.8791     -4100.8585     -5401.0386     -299.70378      1599.8839      5808.769     
    481000   1.0191688      1.0015947      7.582629      -2627.1458     -4157.4278      1530.282      -4157.4278     -5463.9869     -300.32723      1606.8862      5771.081     
    482000   1.016608       1.0066487      7.3366259     -2650.74       -4177.177       1526.437      -4177.177      -5440.6526     -300.2379       1563.7135      5475.0233    
    483000   0.99294259     0.99408561     7.913942      -2575.5938     -4066.4971      1490.9033     -4066.4971     -5443.1281     -301.20717      1677.8382      6189.5826    
    484000   0.99610558     1.0071755      7.2070665     -2682.2668     -4177.9193      1495.6525     -4177.9193     -5411.122      -303.71286      1536.9155      5300.0015    
    485000   1.013688       1.017512       7.4983        -2642.6774     -4164.7299      1522.0525     -4164.7299     -5463.8484     -298.90073      1598.0192      5662.1499    
    486000   1.03059        1.0090376      7.2786922     -2625.3788     -4172.8097      1547.4309     -4172.8097     -5417.7959     -303.10504      1548.0912      5436.2193    
    487000   1.0406674      1.0298937      7.4714177     -2542.4429     -4105.0049      1562.5621     -4105.0049     -5387.2973     -300.19771      1582.49        5732.6106    
    488000   1.076939       1.0595626      7.4502083     -2534.5041     -4151.528       1617.0239     -4151.528      -5421.6899     -298.0932       1568.2551      5717.0587    
    489000   0.97147512     0.97061732     7.3663371     -2688.6473     -4147.3172      1458.6699     -4147.3172     -5410.772      -302.94505      1566.3998      5470.0229    
    490000   0.9613092      0.98535031     7.4711316     -2721.2509     -4164.6567      1443.4058     -4164.6567     -5464.0284     -303.4291       1602.8008      5553.4857    
    491000   0.98600092     0.97338845     7.5235362     -2622.879      -4103.3593      1480.4804     -4103.3593     -5405.3574     -301.91036      1603.9084      5709.899     
    492000   0.97993652     0.99387867     7.3476362     -2705.0005     -4176.3752      1471.3747     -4176.3752     -5430.704      -303.80422      1558.133       5432.9573    
    493000   1.008123       1.0048542      7.4726441     -2608.7201     -4122.4169      1513.6968     -4122.4169     -5394.5263     -302.00592      1574.1154      5667.6917    
    494000   0.97029349     0.97823964     7.6910943     -2697.5316     -4154.4273      1456.8957     -4154.4273     -5483.7746     -303.42242      1632.7697      5820.8272    
    495000   0.97149646     0.98490754     7.4226153     -2715.837      -4174.539       1458.7019     -4174.539      -5466.1978     -301.6946       1593.3535      5505.1648    
    496000   0.96691653     0.99917804     7.6738763     -2654.3635     -4106.1886      1451.8252     -4106.1886     -5433.7747     -296.21435      1623.8004      5844.9253    
    497000   1.0013192      1.0109533      7.2884531     -2719.895      -4223.3758      1503.4808     -4223.3758     -5481.9667     -301.13761      1559.7285      5352.514     
    498000   0.9681647      0.98060138     7.6779889     -2679.3004     -4132.9997      1453.6993     -4132.9997     -5456.5074     -300.64775      1624.1554      5824.5433    
    499000   1.0605097      1.0216233      7.4181409     -2594.1064     -4186.4618      1592.3554     -4186.4618     -5452.8647     -301.52502      1567.9279      5621.9397    
    500000   0.99328158     0.99187766     7.5046725     -2673.9123     -4165.3246      1491.4123     -4165.3246     -5469.8913     -297.21665      1601.7833      5637.9729    
colvars: Saving collective variables state to "prod.colvars.state".
Loop time of 5715.5 on 1 procs for 500000 steps with 1002 atoms

Performance: 37791.958 tau/day, 87.481 timesteps/s
100.0% CPU use with 1 MPI tasks x 1 OpenMP threads

MPI task timing breakdown:
Section |  min time  |  avg time  |  max time  |%varavg| %total
---------------------------------------------------------------
Pair    | 25.937     | 25.937     | 25.937     |   0.0 |  0.45
Kspace  | 5589.1     | 5589.1     | 5589.1     |   0.0 | 97.79
Neigh   | 0.066085   | 0.066085   | 0.066085   |   0.0 |  0.00
Comm    | 53.788     | 53.788     | 53.788     |   0.0 |  0.94
Output  | 0.066365   | 0.066365   | 0.066365   |   0.0 |  0.00
Modify  | 41.69      | 41.69      | 41.69      |   0.0 |  0.73
Other   |            | 4.88       |            |       |  0.09

Nlocal:           1002 ave        1002 max        1002 min
Histogram: 1 0 0 0 0 0 0 0 0 0
Nghost:           7713 ave        7713 max        7713 min
Histogram: 1 0 0 0 0 0 0 0 0 0
Neighs:              0 ave           0 max           0 min
Histogram: 1 0 0 0 0 0 0 0 0 0

Total # of neighbors = 0
Ave neighs/atom = 0
Neighbor list builds = 47085
Dangerous builds = 0

undump         1
unfix          1
unfix          2
unfix          3
Total wall time: 3:31:51
