LAMMPS (3 Aug 2022)
#=======================================
# Input file for Stockmayer fluid with two ions
#   Created by Chris Balzer (balzer@caltech.edu)
#   See README.md for description
#==================================

#======
# Parameters
#======
# Initialize the system set up
units		      lj
boundary	    p p p
atom_style	  hybrid dipole sphere
WARNING: Atom style hybrid defines both, per-type and per-atom masses; both must be set, but only per-atom masses will be used (../atom_vec_hybrid.cpp:133)
atom_modify   map yes

# Read in input data
read_data	    system.data
Reading data file ...
  orthogonal box = (0 0 0) to (10.3464 10.3464 10.3464)
  1 by 1 by 1 MPI processor grid
  reading atoms ...
  1002 atoms
  read_data CPU = 0.002 seconds

# Group atoms
group         solvent  type 1
1000 atoms in group solvent
group         ions     type 2 3
2 atoms in group ions
group         anion    type 2
1 atoms in group anion
group         cation   type 3
1 atoms in group cation
group2ndx     groups.ndx cation anion
Writing groups to index file groups.ndx:
 writing group cation...done
 writing group anion...done

# Set mass and diameter of spheres
set type      1 mass 1.0 # solvent
Setting atom values ...
  1000 settings made for mass
set type      2 mass 1.0 # anion
Setting atom values ...
  1 settings made for mass
set type      3 mass 1.0 # cation
Setting atom values ...
  1 settings made for mass
set type      1 diameter 1.0 # solvent
Setting atom values ...
  1000 settings made for diameter
set type      2 diameter 1.0 # anion
Setting atom values ...
  1 settings made for diameter
set type      3 diameter 1.0 # cation
Setting atom values ...
  1 settings made for diameter

# Set charge of ions
set type      2 charge -13.626 # anion
Setting atom values ...
  1 settings made for charge
set type      3 charge  13.626 # cation
Setting atom values ...
  1 settings made for charge

# Non-bonded interactions
pair_style	  lj/cut/dipole/long 1.12246204831 5.06974
pair_coeff	  1 1 1.0 1.0 # solvent
pair_coeff	  2 2 1.0 1.0 # anion
pair_coeff	  3 3 1.0 1.0 # cation
kspace_style  ewald/disp 1e-4
pair_modify   shift yes mix geometric

# Set dipole
set group solvent dipole/random 4321 1.7494
Setting atom values ...
  1000 settings made for dipole/random

# Neighbor settings
neighbor	    0.4 bin
neigh_modify every 1 delay 0 one 10000

# Temperature computation
compute tempSph all  temp/sphere

#####################################################
# Minimization
minimize 0.0 1.0e-8 100000 100000

CITE-CITE-CITE-CITE-CITE-CITE-CITE-CITE-CITE-CITE-CITE-CITE-CITE

Your simulation uses code contributions which should be cited:

- GPU package (short-range, long-range and three-body potentials):

@Article{Brown11,
 author = {W. M. Brown, P. Wang, S. J. Plimpton, A. N. Tharrington},
 title = {Implementing Molecular Dynamics on Hybrid High Performance Computers - Short Range Forces},
 journal = {Comp.~Phys.~Comm.},
 year =    2011,
 volume =  182,
 pages =   {898--911}
}

@Article{Brown12,
 author = {W. M. Brown, A. Kohlmeyer, S. J. Plimpton, A. N. Tharrington},
 title = {Implementing Molecular Dynamics on Hybrid High Performance Computers - Particle-Particle Particle-Mesh},
 journal = {Comp.~Phys.~Comm.},
 year =    2012,
 volume =  183,
 pages =   {449--459}
}

@Article{Brown13,
 author = {W. M. Brown, Y. Masako},
 title = {Implementing Molecular Dynamics on Hybrid High Performance Computers – Three-Body Potentials},
 journal = {Comp.~Phys.~Comm.},
 year =    2013,
 volume =  184,
 pages =   {2785--2793}
}

@Article{Trung15,
 author = {T. D. Nguyen, S. J. Plimpton},
 title = {Accelerating dissipative particle dynamics simulations for soft matter systems},
 journal = {Comput.~Mater.~Sci.},
 year =    2015,
 volume =  100,
 pages =   {173--180}
}

@Article{Trung17,
 author = {T. D. Nguyen},
 title = {GPU-accelerated Tersoff potentials for massively parallel Molecular Dynamics simulations},
 journal = {Comp.~Phys.~Comm.},
 year =    2017,
 volume =  212,
 pages =   {113--122}
}

@Article{Nikolskiy19,
 author = {V. Nikolskiy, V. Stegailov},
 title = {GPU acceleration of four-site water models in LAMMPS},
 journal = {Proceeding of the International Conference on Parallel Computing (ParCo 2019), Prague, Czech Republic},
 year =    2019
}

CITE-CITE-CITE-CITE-CITE-CITE-CITE-CITE-CITE-CITE-CITE-CITE-CITE

EwaldDisp initialization ...
Generated 3 of 3 mixed pair_coeff terms from geometric mixing rule
  G vector = 0.55961375,   accuracy = 0.0001
Generated 3 of 3 mixed pair_coeff terms from geometric mixing rule
Neighbor list info ...
  update every 1 steps, delay 0 steps, check yes
  max neighbors/atom: 10000, page size: 100000
  master list distance cutoff = 5.46974
  ghost atom cutoff = 5.46974
  binsize = 2.73487, bins = 4 4 4
  0 neighbor lists, perpetual/occasional/extra = 0 0 0
  vectors: nbox = 7, nkvec = 709
Per MPI rank memory allocation (min/avg/max) = 18.02 | 18.02 | 18.02 Mbytes
   Step          Temp          E_pair         E_mol          TotEng         Press
         0   0              1.2114127      0              1.2114127      11.106432
      4147   0             -5.5057953      0             -5.5057953      2.1125349
Loop time of 117.159 on 1 procs for 4147 steps with 1002 atoms

100.0% CPU use with 1 MPI tasks x 1 OpenMP threads

Minimization stats:
  Stopping criterion = linesearch alpha is zero
  Energy initial, next-to-last, final =
      1.21141271045144  -5.50579534736424  -5.50579534736424
  Force two-norm initial, final = 1095.6381 0.7458484
  Force max component initial, final = 76.684701 0.14927529
  Final line search alpha, max atom move = 2.0443824e-05 3.0517578e-06
  Iterations, force evaluations = 4147 9651

MPI task timing breakdown:
Section |  min time  |  avg time  |  max time  |%varavg| %total
---------------------------------------------------------------
Pair    | 0.69065    | 0.69065    | 0.69065    |   0.0 |  0.59
Kspace  | 114.74     | 114.74     | 114.74     |   0.0 | 97.94
Neigh   | 0.0011112  | 0.0011112  | 0.0011112  |   0.0 |  0.00
Comm    | 1.4804     | 1.4804     | 1.4804     |   0.0 |  1.26
Output  | 0          | 0          | 0          |   0.0 |  0.00
Modify  | 0.00030594 | 0.00030594 | 0.00030594 |   0.0 |  0.00
Other   |            | 0.2445     |            |       |  0.21

Nlocal:           1002 ave        1002 max        1002 min
Histogram: 1 0 0 0 0 0 0 0 0 0
Nghost:           7748 ave        7748 max        7748 min
Histogram: 1 0 0 0 0 0 0 0 0 0
Neighs:              0 ave           0 max           0 min
Histogram: 1 0 0 0 0 0 0 0 0 0

Total # of neighbors = 0
Ave neighs/atom = 0
Neighbor list builds = 654
Dangerous builds = 0
reset_timestep 0

#####################################################
# Initialization (NVT Sphere with spring)

velocity       all create 1.0 4928459
fix		         1 all nve/sphere update dipole
fix            2 all langevin 1.0 1.0 1.0 214323 omega yes
fix            3 ions recenter 0.5 0.5 0.5 units fraction shift all
fix            4 cation spring couple anion 50.0 0.0 0.0 0.0 1.25

thermo		     1000
thermo_style	 custom step temp c_tempSph press etotal pe ke epair ecoul elong evdwl enthalpy
thermo_modify  norm no
dump	       	 1 all custom 10000 dump.dipoleInit id type x y z q mux muy muz

timestep	     0.005
run		         100000
EwaldDisp initialization ...
Generated 3 of 3 mixed pair_coeff terms from geometric mixing rule
  G vector = 0.55961375,   accuracy = 0.0001
Generated 3 of 3 mixed pair_coeff terms from geometric mixing rule
Per MPI rank memory allocation (min/avg/max) = 18.21 | 18.21 | 18.21 Mbytes
   Step          Temp        c_tempSph        Press          TotEng         PotEng         KinEng         E_pair         E_coul         E_long         E_vdwl        Enthalpy
         0   1              0.49975037     3.0163223     -4015.3069     -5516.8069      1501.5        -5516.8069     -5975.2052     -291.04978      749.44807     -674.54493
      1000   1.0007997      1.004552       7.2128968     -2673.3311     -4176.0319      1502.7007     -4176.0319     -5402.7104     -299.72058      1526.3991      5315.3946
      2000   1.0023181      1.0072399      7.2628901     -2653.6061     -4158.5867      1504.9806     -4158.5867     -5410.3538     -300.9162       1552.6833      5390.4903
      3000   1.0148132      1.0123923      7.5970427     -2606.0138     -4129.7559      1523.742      -4129.7559     -5439.7511     -300.25479      1610.2501      5808.177
      4000   1.0322079      1.0176034      7.0258566     -2635.2836     -4185.1438      1549.8602     -4185.1438     -5375.6346     -298.58866      1489.0795      5146.2836
      5000   0.99457496     0.99944137     7.6408524     -2684.4278     -4177.7821      1493.3543     -4177.7821     -5499.4112     -303.26568      1624.8947      5778.2851
      6000   1.0170186      1.0290108      7.546068      -2586.5606     -4113.6141      1527.0535     -4113.6141     -5398.9237     -303.69074      1589.0004      5771.1727
      7000   0.98739885     0.99383232     6.8440716     -2713.6218     -4196.2012      1482.5794     -4196.2012     -5377.2977     -298.00781      1479.1043      4866.6073
      8000   1.01751        1.0113189      7.7482703     -2579.4049     -4107.1962      1527.7913     -4107.1962     -5449.5255     -299.02417      1641.3535      6002.2798
      9000   0.97120919     0.97767528     7.529282      -2717.762      -4176.0326      1458.2706     -4176.0326     -5484.7722     -298.5546       1607.2941      5621.3797
     10000   0.93801511     0.97506169     7.2932237     -2748.4584     -4156.8881      1408.4297     -4156.8881     -5424.4405     -295.0459       1562.5983      5329.2343
     11000   0.96948439     0.98911342     7.4665401     -2725.0192     -4180.7         1455.6808     -4180.7        -5474.2112     -303.83792      1597.3492      5544.6321
     12000   0.9937223      0.97765006     7.159292      -2698.0922     -4190.1662      1492.074      -4190.1662     -5418.2079     -302.93261      1530.9743      5231.263
     13000   0.99171445     0.99555097     7.5295203     -2636.151      -4125.2102      1489.0592     -4125.2102     -5431.2604     -304.24788      1610.298       5703.2547
     14000   0.98384097     0.99013921     7.3008586     -2731.581      -4208.8182      1477.2372     -4208.8182     -5473.0438     -302.37527      1566.6009      5354.5679
     15000   1.0134269      1.0255082      7.6885644     -2639.2444     -4160.9049      1521.6605     -4160.9049     -5485.4549     -300.87914      1625.4291      5876.3124
     16000   0.991267       0.98279432     7.1057246     -2717.5922     -4205.9796      1488.3874     -4205.9796     -5431.99       -301.60905      1527.6194      5152.4337
     17000   1.0142904      1.0173138      7.7559787     -2522.2944     -4045.2514      1522.957      -4045.2514     -5376.7124     -296.30703      1627.768       6067.9279
     18000   1.0346845      0.99884178     7.4585868     -2614.0161     -4167.5949      1553.5788     -4167.5949     -5448.8612     -299.05306      1580.3194      5646.8264
     19000   0.95759143     1.0130307      7.4947441     -2655.4407     -4093.2643      1437.8235     -4093.2643     -5385.9232     -301.84701      1594.506       5645.4482
     20000   1.0504923      1.0405219      7.1520262     -2630.6702     -4207.9844      1577.3141     -4207.9844     -5422.4288     -300.69143      1515.1359      5290.6377
     21000   1.0154472      1.0189526      7.3284985     -2680.0016     -4204.6956      1524.694      -4204.6956     -5455.7053     -301.2509       1552.2606      5436.7601
     22000   0.99091631     0.99683487     7.3873188     -2639.1229     -4126.9837      1487.8608     -4126.9837     -5388.2119     -302.78663      1564.0148      5542.7859
     23000   0.98199933     0.98544326     7.5362238     -2629.9027     -4104.3747      1474.472      -4104.3747     -5395.8188     -301.27198      1592.7161      5716.9275
     24000   0.95972315     1.001251       7.5720911     -2670.6414     -4111.6657      1441.0243     -4111.6657     -5411.2812     -302.45421      1602.0697      5715.9141
     25000   1.0049687      1.0067513      7.501946      -2525.4308     -4034.3913      1508.9605     -4034.3913     -5302.3758     -302.52397      1570.5085      5783.4347
     26000   1.0121579      1.0258159      7.5756405     -2621.0571     -4140.8122      1519.7551     -4140.8122     -5457.1871     -299.0128       1615.3877      5769.4295
     27000   0.98787363     0.9913684      7.0460055     -2656.3213     -4139.6135      1483.2923     -4139.6135     -5342.4811     -300.79256      1503.6601      5147.5621
     28000   1.0337305      1.0185281      7.1716316     -2642.7795     -4194.9258      1552.1463     -4194.9258     -5420.7925     -299.8901       1525.7568      5300.2425
     29000   0.98187266     0.97686515     7.7526449     -2660.7974     -4135.0792      1474.2818     -4135.0792     -5482.7849     -300.80203      1648.5078      5925.7326
     30000   0.9924151      0.99068476     7.4886849     -2622.6479     -4112.7592      1490.1113     -4112.7592     -5412.4745     -296.96668      1596.682       5671.5301
     31000   0.98995331     0.99465601     7.1167842     -2678.7037     -4165.1186      1486.4149     -4165.1186     -5373.8476     -299.68583      1508.4148      5203.5715
     32000   0.98679811     0.98527775     7.7813832     -2630.4389     -4112.1162      1481.6774     -4112.1162     -5455.5578     -299.61274      1643.0543      5987.9204
     33000   0.98762227     1.0130513      7.6871359     -2636.4511     -4119.3659      1482.9148     -4119.3659     -5444.5167     -296.91945      1622.0702      5877.5235
     34000   0.98721047     0.98693868     7.4657576     -2587.942      -4070.2385      1482.2965     -4070.2385     -5352.7032     -299.64198      1582.1067      5680.8426
     35000   1.0052395      0.99824507     7.2789485     -2714.5394     -4223.9066      1509.3671     -4223.9066     -5484.49       -302.20565      1562.7891      5347.3426
     36000   1.0154665      1.0013737      7.734562      -2519.1365     -4043.8595      1524.723      -4043.8595     -5366.435      -299.2951       1621.8707      6047.3654
     37000   0.98469633     1.0050572      7.1514471     -2764.9961     -4243.5177      1478.5215     -4243.5177     -5465.4956     -299.92118      1521.8992      5155.6703
     38000   1.0275717      1.0328433      7.6277729     -2562.8022     -4105.7011      1542.8989     -4105.7011     -5415.7696     -301.11044      1611.1789      5885.4242
     39000   0.99004258     1.0066873      7.5324413     -2658.8191     -4145.3681      1486.5489     -4145.3681     -5457.8465     -301.30586      1613.7843      5683.8218
     40000   0.98980658     0.9805215      7.3093118     -2686.6894     -4172.8839      1486.1946     -4172.8839     -5434.6719     -300.22022      1562.0081      5408.8219
     41000   1.0503019      1.0225735      7.436278      -2561.1373     -4138.1656      1577.0283     -4138.1656     -5396.795      -299.13483      1557.7642      5674.9969
     42000   1.01237        1.0025689      7.3298596     -2702.3578     -4222.4314      1520.0736     -4222.4314     -5504.5006     -299.96531      1582.0345      5415.9114
     43000   1.0314786      1.0128989      7.1609761     -2652.8014     -4201.5665      1548.7651     -4201.5665     -5431.5156     -300.02678      1529.9759      5278.4191
     44000   0.96483216     0.97767624     7.3789983     -2688.6271     -4137.3226      1448.6955     -4137.3226     -5405.6545     -301.31706      1569.6489      5484.0662
     45000   1.0602216      1.0348599      7.4678229     -2576.9019     -4168.8246      1591.9227     -4168.8246     -5442.3575     -301.85171      1575.3846      5694.1701
     46000   0.97359348     0.97167478     7.6485127     -2595.779      -4057.6296      1461.8506     -4057.6296     -5384.6965     -300.44868      1627.5155      5875.4181
     47000   1.003506       0.99867641     7.192726      -2728.3945     -4235.1587      1506.7643     -4235.1587     -5469.0427     -301.03183      1534.9158      5237.9909
     48000   0.99285855     0.99852735     7.1869168     -2665.262      -4156.0391      1490.7771     -4156.0391     -5378.9662     -305.48309      1528.4102      5294.6893
     49000   0.99544131     0.98390113     7.5709189     -2670.7609     -4165.416       1494.6551     -4165.416      -5467.0181     -305.32073      1606.9229      5714.4963
     50000   0.95802967     1.0000373      7.3615486     -2722.6123     -4161.0939      1438.4816     -4161.0939     -5434.7185     -300.18618      1573.8108      5430.7544
     51000   0.97630651     0.99916876     7.5347442     -2719.4259     -4185.3501      1465.9242     -4185.3501     -5491.2606     -303.53269      1609.4431      5625.7656
     52000   1.0146498      1.0288707      7.1579064     -2654.235      -4177.7317      1523.4967     -4177.7317     -5397.0577     -299.8373       1519.1634      5273.5855
     53000   0.98561848     1.0104378      7.3478709     -2679.0433     -4158.9494      1479.9061     -4158.9494     -5431.3667     -301.91529      1574.3326      5459.1745
     54000   1.0149996      1.0064975      7.3747912     -2617.9008     -4141.9227      1524.0219     -4141.9227     -5413.0617     -297.97413      1569.1131      5550.133
     55000   1.0136848      1.0129167      7.5664715     -2622.9401     -4144.9878      1522.0477     -4144.9878     -5443.3364     -298.90346      1597.2521      5757.3913
     56000   0.97198825     0.97041224     7.5691917     -2628.8816     -4088.322       1459.4404     -4088.322      -5384.2484     -301.12747      1597.0539      5754.4626
     57000   0.99145254     1.0054555      7.6584297     -2582.4782     -4071.1442      1488.666      -4071.1442     -5379.6912     -298.46247      1607.0094      5899.7026
     58000   1.0107826      1.000544       7.4731059     -2601.4294     -4119.1195      1517.6901     -4119.1195     -5393.8379     -298.7461       1573.4645      5675.4939
     59000   0.96763762     0.95835953     7.4511332     -2701.8468     -4154.7547      1452.9079     -4154.7547     -5443.9541     -302.71588      1591.9153      5550.7403
     60000   1.039655       1.0334358      7.2304982     -2636.8699     -4197.9118      1561.042      -4197.9118     -5438.1626     -302.12264      1542.3735      5371.3506
     61000   0.99591474     0.98317315     7.9796168     -2596.0771     -4091.4431      1495.366      -4091.4431     -5473.551      -301.19032      1683.2982      6241.838
     62000   0.99111952     1.0057698      7.4866614     -2725.2259     -4213.3918      1488.166      -4213.3918     -5512.7979     -302.13517      1601.5412      5566.711
     63000   1.0106087      0.99115818     7.5134698     -2631.2163     -4148.6453      1517.429      -4148.6453     -5451.9556     -302.88444      1606.1948      5690.4125
     64000   0.95970916     0.9876034      7.3409892     -2795.465      -4236.4683      1441.0033     -4236.4683     -5517.1285     -302.1215       1582.7817      5335.1309
     65000   1.0313111      1.0079026      7.4596515     -2654.8838     -4203.3974      1548.5137     -4203.3974     -5489.4963     -298.40414      1584.503       5607.1379
     66000   0.99373625     0.99309813     7.6229425     -2647.3301     -4139.4251      1492.095      -4139.4251     -5470.1381     -299.43484      1630.1479      5795.5464
     67000   0.97943431     0.95868621     7.7342807     -2619.1602     -4089.7808      1470.6206     -4089.7808     -5420.1736     -302.61422      1633.007       5947.0302
     68000   0.9707118      0.97565564     7.8272285     -2683.5459     -4141.0696      1457.5238     -4141.0696     -5512.0152     -298.39923      1669.3448      5985.59
     69000   1.0036949      0.99237929     7.1224023     -2665.351      -4172.3989      1507.0479     -4172.3989     -5384.4905     -297.48371      1509.5753      5223.1465
     70000   0.99327337     0.99865241     7.6942854     -2568.0714     -4059.4714      1491.4        -4059.4714     -5394.0173     -300.18729      1634.7332      5953.8218
     71000   0.97086546     0.98834222     7.4365239     -2595.3062     -4053.0606      1457.7545     -4053.0606     -5317.6211     -297.57993      1562.1404      5641.1003
     72000   0.99656975     1.0063281      7.3696891     -2659.87       -4156.2194      1496.3495     -4156.2194     -5444.0538     -294.03557      1581.87        5502.5129
     73000   1.0322766      1.0177387      7.6060475     -2577.1782     -4127.1416      1549.9634     -4127.1416     -5423.5953     -302.83855      1599.2923      5846.986
     74000   1.015898       1.0186325      7.0902073     -2759.1658     -4284.5366      1525.3709     -4284.5366     -5518.7087     -300.6189       1534.7909      5093.6739
     75000   1.0545118      1.0149793      7.4247164     -2647.8119     -4231.1613      1583.3494     -4231.1613     -5491.0712     -304.51893      1564.4288      5575.517
     76000   0.94727507     0.99869005     7.5459762     -2676.1043     -4098.4378      1422.3335     -4098.4378     -5415.0578     -300.71583      1617.3358      5681.5273
     77000   1.0467212      1.0012724      7.4133991     -2533.9113     -4105.5632      1571.6519     -4105.5632     -5365.5191     -298.07726      1558.0332      5676.8831
     78000   0.98286309     0.9696922      7.1696552     -2726.2674     -4202.0363      1475.7689     -4202.0363     -5424.1204     -302.16661      1524.2507      5214.5656
     79000   1.0485538      1.036464       7.4738359     -2571.8979     -4146.3015      1574.4036     -4146.3015     -5423.873      -296.87763      1574.4492      5705.8339
     80000   1.0092065      1.0167021      7.5818626     -2606.2111     -4121.5347      1515.3236     -4121.5347     -5429.5223     -299.20533      1607.1929      5791.1669
     81000   1.0560376      1.0177154      7.4008065     -2576.1861     -4161.8266      1585.6405     -4161.8266     -5429.736      -303.11942      1571.0288      5620.6612
     82000   0.95644844     0.96908801     7.4305954     -2714.5574     -4150.6647      1436.1073     -4150.6647     -5423.2517     -299.21809      1571.805       5515.2829
     83000   1.0379935      1.0293104      7.3970911     -2594.2996     -4152.8469      1558.5473     -4152.8469     -5418.5959     -298.72534      1564.4744      5598.4327
     84000   0.95337506     0.9706073      7.3151784     -2728.821      -4160.3136      1431.4927     -4160.3136     -5414.823      -298.54119      1553.0505      5373.1879
     85000   0.97429792     0.98441401     7.4784556     -2710.3582     -4173.2665      1462.9083     -4173.2665     -5462.8709     -300.82594      1590.4304      5572.4903
     86000   1.0182067      1.0069865      7.7750768     -2581.1883     -4110.0256      1528.8373     -4110.0256     -5452.6008     -300.3048       1642.88        6030.1863
     87000   1.0474264      1.0148381      7.6357218     -2578.6262     -4151.3369      1572.7107     -4151.3369     -5463.4624     -299.44715      1611.5727      5878.4042
     88000   0.95962603     0.96713708     7.3927518     -2694.2039     -4135.0824      1440.8785     -4135.0824     -5411.2126     -302.17303      1578.3032      5493.7223
     89000   0.97293495     0.98587327     7.3939659     -2637.5227     -4098.3845      1460.8618     -4098.3845     -5364.3        -302.26831      1568.1838      5551.7482
     90000   1.0227925      1.0150645      7.2620066     -2674.1513     -4209.8741      1535.7229     -4209.8741     -5447.7227     -303.48022      1541.3288      5368.9667
     91000   0.98563446     0.97401512     7.5842094     -2674.5698     -4154.5         1479.9301     -4154.5        -5476.4157     -300.04148      1621.9572      5725.4074
     92000   1.0023943      1.0046373      7.6325803     -2666.5865     -4171.6816      1505.0951     -4171.6816     -5500.5848     -305.0757       1633.9789      5786.9645
     93000   1.0243195      1.011099       7.6437256     -2605.2285     -4143.2442      1538.0157     -4143.2442     -5455.6692     -302.03021      1614.4553      5860.6666
     94000   0.98971208     0.9929452      7.3760657     -2663.8235     -4149.8762      1486.0527     -4149.8762     -5418.9584     -300.85428      1569.9364      5505.6218
     95000   1.0022773      0.9805469      7.1525123     -2704.6636     -4209.5831      1504.9194     -4209.5831     -5434.1043     -300.73803      1525.2592      5217.1825
     96000   0.98355497     0.97734346     7.1190444     -2706.4052     -4183.213       1476.8078     -4183.213      -5405.8697     -301.56553      1524.2222      5178.3732
     97000   1.0001626      0.98575683     7.6489664     -2626.32       -4128.0642      1501.7442     -4128.0642     -5441.7525     -302.04938      1615.7377      5845.3796
     98000   0.99811966     0.99023029     7.3290233     -2713.8914     -4212.5681      1498.6767     -4212.5681     -5488.5336     -303.5097       1579.4752      5403.4515
     99000   0.97516844     0.97889247     7.3020631     -2725.7255     -4189.9409      1464.2154     -4189.9409     -5456.6267     -300.09753      1566.7834      5361.7574
    100000   0.95350657     0.97432551     7.3944524     -2678.7631     -4110.4532      1431.6901     -4110.4532     -5384.0137     -296.79558      1570.3561      5511.0466
Loop time of 1210.62 on 1 procs for 100000 steps with 1002 atoms

Performance: 35684.236 tau/day, 82.602 timesteps/s
100.0% CPU use with 1 MPI tasks x 1 OpenMP threads

MPI task timing breakdown:
Section |  min time  |  avg time  |  max time  |%varavg| %total
---------------------------------------------------------------
Pair    | 7.3625     | 7.3625     | 7.3625     |   0.0 |  0.61
Kspace  | 1177.6     | 1177.6     | 1177.6     |   0.0 | 97.28
Neigh   | 0.016508   | 0.016508   | 0.016508   |   0.0 |  0.00
Comm    | 15.681     | 15.681     | 15.681     |   0.0 |  1.30
Output  | 0.015056   | 0.015056   | 0.015056   |   0.0 |  0.00
Modify  | 8.6632     | 8.6632     | 8.6632     |   0.0 |  0.72
Other   |            | 1.237      |            |       |  0.10

Nlocal:           1002 ave        1002 max        1002 min
Histogram: 1 0 0 0 0 0 0 0 0 0
Nghost:           7650 ave        7650 max        7650 min
Histogram: 1 0 0 0 0 0 0 0 0 0
Neighs:              0 ave           0 max           0 min
Histogram: 1 0 0 0 0 0 0 0 0 0

Total # of neighbors = 0
Ave neighs/atom = 0
Neighbor list builds = 10804
Dangerous builds = 1

undump         1
unfix          1
unfix          2
unfix          3
unfix          4

#####################################################
# Equilibration (NVT Sphere with colvars)

fix		         1 all nve/sphere update dipole
fix            2 all langevin 1.0 1.0 1.0 214323 omega yes
fix            3 ions colvars input.equil.colvars output equil

thermo		     1000
thermo_style	 custom step temp c_tempSph press etotal pe ke epair ecoul elong evdwl enthalpy
WARNING: New thermo_style command, previous thermo_modify settings will be lost (../output.cpp:903)
thermo_modify  norm no
dump	       	 1 all custom 10000 dump.dipoleEquil id type x y z q mux muy muz

timestep	     0.005
run		         500000
EwaldDisp initialization ...
Generated 3 of 3 mixed pair_coeff terms from geometric mixing rule
  G vector = 0.55961375,   accuracy = 0.0001
Generated 3 of 3 mixed pair_coeff terms from geometric mixing rule
colvars: Creating proxy instance
colvars: ----------------------------------------------------------------------
colvars: Initializing the collective variables module, version 2022-05-24.
colvars: Please cite Fiorin et al, Mol Phys 2013:
colvars:   https://doi.org/10.1080/00268976.2013.813594
colvars: as well as all other papers listed below for individual features used.
colvars: This version was built with the C++11 standard or higher.
colvars: Using LAMMPS interface, version "2022-05-09".
colvars: ----------------------------------------------------------------------
colvars: Reading new configuration from file "input.equil.colvars":
colvars: # units = "" [default]
colvars: # indexFile = "groups.ndx"
colvars: The following index groups are currently defined:
colvars:   cation (1 atoms)
colvars:   anion (1 atoms)
colvars: # smp = on [default]
colvars: # colvarsTrajFrequency = 500
colvars: # colvarsRestartFrequency = 0 [default]
colvars: # scriptedColvarForces = off [default]
colvars: # scriptingAfterBiases = off [default]
colvars: ----------------------------------------------------------------------
colvars:   Initializing a new collective variable.
colvars:   # name = "dist"
colvars:   Initializing a new "distance" component.
colvars:     # name = "" [default]
colvars:     # componentCoeff = 1 [default]
colvars:     # componentExp = 1 [default]
colvars:     # period = 0 [default]
colvars:     # wrapAround = 0 [default]
colvars:     # forceNoPBC = off [default]
colvars:     # scalable = on [default]
colvars:       Initializing atom group "group1".
colvars:       # name = "" [default]
colvars:       # centerToOrigin = off [default]
colvars:       # centerToReference = off [default]
colvars:       # rotateToReference = off [default]
colvars:       # atomsOfGroup = "" [default]
colvars:       # indexGroup = "cation"
colvars:       # psfSegID =  [default]
colvars:       # atomsFile = "" [default]
colvars:       # dummyAtom = ( 0 , 0 , 0 ) [default]
colvars:       # enableFitGradients = on [default]
colvars:       # printAtomIDs = off [default]
colvars:       Atom group "group1" defined with 1 atoms requested.
colvars:       Initializing atom group "group2".
colvars:       # name = "" [default]
colvars:       # centerToOrigin = off [default]
colvars:       # centerToReference = off [default]
colvars:       # rotateToReference = off [default]
colvars:       # atomsOfGroup = "" [default]
colvars:       # indexGroup = "anion"
colvars:       # psfSegID =  [default]
colvars:       # atomsFile = "" [default]
colvars:       # dummyAtom = ( 0 , 0 , 0 ) [default]
colvars:       # enableFitGradients = on [default]
colvars:       # printAtomIDs = off [default]
colvars:       Atom group "group2" defined with 1 atoms requested.
colvars:     # oneSiteSystemForce = off [default]
colvars:     # oneSiteTotalForce = off [default]
colvars:   All components initialized.
colvars:   # timeStepFactor = 1 [default]
colvars:   # width = 0.01
colvars:   # lowerBoundary = 0.75
colvars:   # upperBoundary = 2
colvars:   # hardLowerBoundary = off [default]
colvars:   # hardUpperBoundary = off [default]
colvars:   # expandBoundaries = off [default]
colvars:   # extendedLagrangian = off [default]
colvars:   # outputValue = on [default]
colvars:   # outputVelocity = off [default]
colvars:   # outputTotalForce = off [default]
colvars:   # outputAppliedForce = off [default]
colvars:   # subtractAppliedForce = off [default]
colvars:   # runAve = off [default]
colvars:   # corrFunc = off [default]
colvars: ----------------------------------------------------------------------
colvars: Collective variables initialized, 1 in total.
colvars: ----------------------------------------------------------------------
colvars:   Initializing a new "abf" instance.
colvars:   # name = "abf_dist"
colvars:   # colvars = { dist }
colvars:   # stepZeroData = off [default]
colvars:   # outputEnergy = on
colvars:   # outputFreq = 1000
colvars:   # timeStepFactor = 1 [default]
colvars:   WARNING: ABF should not be run without a thermostat or at 0 Kelvin!
colvars:   # applyBias = on [default]
colvars:   # updateBias = on [default]
colvars:   # hideJacobian = off [default]
colvars:   Jacobian (geometric) forces will be included in reported free energy gradients.
colvars:   # fullSamples = 1000
colvars:   # inputPrefix =  [default]
colvars:   # historyFreq = 1000000
colvars:   # shared = off [default]
colvars:   # maxForce =  [default]
colvars:   # integrate = on [default]
colvars:   Finished ABF setup.
colvars: ----------------------------------------------------------------------
colvars:   Initializing a new "harmonicwalls" instance.
colvars:   # name = "wall_dist"
colvars:   # colvars = { dist }
colvars:   # stepZeroData = off [default]
colvars:   # outputEnergy = off [default]
colvars:   # outputFreq = 0 [default]
colvars:   # timeStepFactor = 1 [default]
colvars:   # writeTISamples = off [default]
colvars:   # writeTIPMF = off [default]
colvars:   # forceConstant = 1 [default]
colvars:   # targetForceConstant = -1 [default]
colvars:   # lowerWalls = { 0.7 }
colvars:   # upperWalls = { 2.05 }
colvars:   # lowerWallConstant = 1
colvars:   # upperWallConstant = 1
colvars:   The lower wall force constant for colvar "dist" will be rescaled to 10000 according to the specified width (0.01).
colvars:   The upper wall force constant for colvar "dist" will be rescaled to 10000 according to the specified width (0.01).
colvars: ----------------------------------------------------------------------
colvars: Collective variables biases initialized, 2 in total.
colvars: ----------------------------------------------------------------------
colvars: Collective variables module (re)initialized.
colvars: ----------------------------------------------------------------------
colvars: The restart output state file will be "rest.colvars.state".
colvars: The final output state file will be "equil.colvars.state".
colvars: Opening trajectory file "equil.colvars.traj".
colvars: Setting initial step number from LAMMPS: 100000
colvars: Re-initialized atom group for variable "dist":0/0. 1 atoms: total mass = 1, total charge = 13.626.
colvars: Re-initialized atom group for variable "dist":0/1. 1 atoms: total mass = 1, total charge = -13.626.
colvars:   Prepared sample and gradient buffers at step 100000.
Per MPI rank memory allocation (min/avg/max) = 18.22 | 18.22 | 18.22 Mbytes
   Step          Temp        c_tempSph        Press          TotEng         PotEng         KinEng         E_pair         E_coul         E_long         E_vdwl        Enthalpy
    100000   0.95350657     0.97432551     7.3944524     -2678.7631     -4110.4532      1431.6901     -4110.4532     -5384.0137     -296.79558      1570.3561      5511.0466
    101000   0.97448283     0.98121828     7.3587806     -2691.161      -4154.3469      1463.186      -4154.3469     -5412.613      -303.03771      1561.3038      5459.1401
    102000   1.0569054      1.0499454      7.2994127     -2650.5314     -4237.4749      1586.9435     -4237.4749     -5492.2205     -304.3781       1559.1237      5434.016
    103000   1.0041227      1.0125632      7.3505317     -2665.3927     -4173.0829      1507.6902     -4173.0829     -5445.7186     -300.47746      1573.1131      5475.7722
    104000   1.0135563      0.99162494     7.5733108     -2568.6717     -4090.5265      1521.8548     -4090.5265     -5388.0956     -298.79427      1596.3634      5819.2346
    105000   0.98135129     0.99230007     7.525741      -2640.0384     -4113.5374      1473.499      -4113.5374     -5402.9151     -300.39708      1589.7748      5695.1815
    106000   1.0052783      0.98967285     7.655556      -2642.9725     -4152.3979      1509.4254     -4152.3979     -5488.4169     -296.73626      1632.7553      5836.0255
    107000   0.99166671     1.0188757      7.1566879     -2681.346      -4170.3336      1488.9876     -4170.3336     -5388.1183     -301.34685      1519.1315      5245.125
    108000   1.027436       0.99818086     7.4783033     -2669.2637     -4211.9588      1542.6951     -4211.9588     -5505.3812     -302.2154       1595.6378      5613.4161
    109000   0.98569578     0.98750811     7.6154877     -2625.692      -4105.7142      1480.0222     -4105.7142     -5413.8952     -301.06312      1609.2441      5808.9279
    110000   0.98994401     0.98709369     7.718216      -2643.3167     -4129.7177      1486.4009     -4129.7177     -5466.364      -299.08269      1635.729       5905.0811
    111000   0.99586179     0.99493954     7.5084495     -2641.4082     -4136.6947      1495.2865     -4136.6947     -5427.6913     -301.31307      1592.3097      5674.6603
    112000   1.0385547      1.0112357      7.3700352     -2611.6455     -4171.0353      1559.3898     -4171.0353     -5427.5854     -304.74311      1561.2932      5551.1207
    113000   1.053318       1.0163165      7.3462079     -2640.5502     -4222.1072      1581.557      -4222.1072     -5476.2791     -304.70162      1558.8735      5495.8257
    114000   1.0188367      1.0107847      7.2162955     -2669.7963     -4199.5796      1529.7833     -4199.5796     -5442.3156     -298.0181       1540.7542      5322.6937
    115000   0.95961352     1.0049769      7.4700174     -2659.914      -4100.7737      1440.8597     -4100.7737     -5385.8987     -297.65352      1582.7785      5613.5886
    116000   0.98201746     0.99106262     7.0753046     -2751.0554     -4225.5546      1474.4992     -4225.5546     -5451.5495     -297.84523      1523.8401      5085.2785
    117000   1.001163       0.99894771     7.1516254     -2691.0884     -4194.3347      1503.2463     -4194.3347     -5427.6551     -299.84535      1533.1657      5229.7755
    118000   0.99693175     0.975096       7.4932072     -2675.9145     -4172.8075      1496.893      -4172.8075     -5464.4034     -304.6016       1596.1975      5623.2722
    119000   1.0434087      1.0257396      7.6011901     -2541.6825     -4108.3607      1566.6782     -4108.3607     -5417.5575     -295.88704      1605.0839      5877.1019
    120000   0.96128406     0.99970812     7.4934249     -2726.6603     -4170.0283      1443.368      -4170.0283     -5466.3992     -300.60109      1596.972       5572.7675
    121000   1.0097588      1.0272398      7.8559221     -2606.3728     -4122.5257      1516.1529     -4122.5257     -5481.5614     -302.59342      1661.6292      6094.543
    122000   0.9602589      1.0002027      7.1319559     -2689.6124     -4131.4411      1441.8287     -4131.4411     -5351.2528     -294.70503      1514.5167      5209.4664
    123000   0.94907115     0.98202015     7.317974      -2724.0063     -4149.0367      1425.0303     -4149.0367     -5416.9139     -300.85559      1568.7328      5381.0988
    124000   0.94896796     1.0002007      7.5214258     -2713.1656     -4138.041       1424.8754     -4138.041      -5464.7867     -295.51097      1622.2567      5617.2749
    125000   1.0118773      1.0203847      7.3925062     -2616.4149     -4135.7487      1519.3338     -4135.7487     -5406.4705     -303.98732      1574.7091      5571.2393
    126000   0.98579128     0.98642372     7.7377779     -2629.7219     -4109.8875      1480.1656     -4109.8875     -5463.0086     -304.05028      1657.1714      5940.3419
    127000   1.0155572      0.98309895     7.3442291     -2622.2012     -4147.0602      1524.8591     -4147.0602     -5399.5295     -303.15407      1555.6234      5511.9832
    128000   1.0568835      1.012953       7.2522183     -2627.2453     -4214.1558      1586.9105     -4214.1558     -5459.4254     -298.45934      1543.7289      5405.0314
    129000   0.99411295     0.9861995      7.4049954     -2678.8235     -4171.4841      1492.6606     -4171.4841     -5457.9103     -305.30369      1591.7298      5522.6632
    130000   1.0026125      1.0089364      7.4829443     -2640.6067     -4146.0294      1505.4227     -4146.0294     -5422.5017     -301.06509      1577.5373      5647.2132
    131000   1.031507       1.0078492      7.4990242     -2571.2887     -4120.0964      1548.8077     -4120.0964     -5399.1101     -299.02637      1578.04        5734.3407
    132000   1.0153022      1.0224975      7.3562909     -2645.7481     -4170.2244      1524.4763     -4170.2244     -5427.8187     -300.29511      1557.8894      5501.7954
    133000   0.96403869     0.99333857     7.170732      -2730.8225     -4178.3266      1447.5041     -4178.3266     -5423.6938     -300.40486      1545.772       5211.2032
    134000   0.96064475     0.98953988     7.2237466     -2710.717      -4153.1251      1442.4081     -4153.1251     -5380.1165     -303.01604      1530.0075      5290.0257
    135000   0.96513153     0.97209571     7.2136648     -2711.9735     -4161.1185      1449.145      -4161.1185     -5401.0349     -301.72915      1541.6456      5277.6029
    136000   1.029116       1.0249081      7.0474343     -2710.4623     -4255.6801      1545.2177     -4255.6801     -5455.8244     -302.75258      1502.8969      5095.0036
    137000   1.05065        1.045132       7.5794988     -2574.3016     -4151.8525      1577.5509     -4151.8525     -5448.109      -299.84695      1596.1034      5820.4583
    138000   0.99913311     1.0017285      7.3195241     -2709.1757     -4209.374       1500.1984     -4209.374      -5472.782      -298.06115      1561.4692      5397.6464
    139000   0.98424854     0.99407151     7.0726827     -2682.0932     -4159.9424      1477.8492     -4159.9424     -5359.3939     -301.11135      1500.5629      5151.3369
    140000   0.98758242     0.97850547     7.3207653     -2728.3309     -4211.1859      1482.855      -4211.1859     -5489.7608     -300.14436      1578.7192      5379.8659
    141000   1.0454493      1.0246341      7.4994305     -2635.3541     -4205.0963      1569.7422     -4205.0963     -5491.9451     -298.20489      1585.0537      5670.7253
    142000   1.0382654      1.0178287      7.3462819     -2599.813      -4158.7686      1558.9555     -4158.7686     -5413.09       -300.86572      1555.1872      5536.6449
    143000   0.98405815     0.99527839     7.3029854     -2693.754      -4171.3173      1477.5633     -4171.3173     -5429.1851     -302.25865      1560.1264      5394.7503
    144000   1.0100463      0.99349047     7.1366136     -2639.8575     -4156.4421      1516.5845     -4156.4421     -5389.6032     -294.26879      1527.4299      5264.3798
    145000   0.98861528     0.99848591     7.3714946     -2739.0379     -4223.4437      1484.4058     -4223.4437     -5488.2468     -305.51146      1570.3146      5425.3447
    146000   1.0369835      0.99154803     7.7064367     -2521.0692     -4078.0999      1557.0307     -4078.0999     -5390.0606     -300.69911      1612.6598      6014.2823
    147000   1.0358796      1.0118846      7.9316075     -2514.1505     -4069.5237      1555.3732     -4069.5237     -5431.9168     -297.91643      1660.3095      6270.5914
    148000   0.96600982     0.99400886     7.1463855     -2768.0948     -4218.5586      1450.4637     -4218.5586     -5457.7956     -301.91881      1541.1558      5146.9656
    149000   1.0438287      1.0085004      7.2947883     -2588.8427     -4156.1514      1567.3088     -4156.1514     -5393.175      -300.91202      1537.9356      5490.5829
    150000   1.0470695      1.0221463      6.6945127     -2747.7317     -4319.9066      1572.1749     -4319.9066     -5467.263      -300.51333      1447.8697      4666.8518
    151000   1.0185322      1.0265632      7.4229319     -2620.6632     -4149.9893      1529.326      -4149.9893     -5438.187      -300.22143      1588.4192      5600.6893
    152000   1.014291       1.0201195      7.2522242     -2577.9144     -4100.8723      1522.9579     -4100.8723     -5343.8471     -298.45476      1541.4295      5454.3689
    153000   1.0022956      1.0090832      7.4349384     -2615.109      -4120.0558      1504.9469     -4120.0558     -5406.7495     -302.17164      1588.8653      5619.5414
    154000   0.98199446     0.99947367     7.3038935     -2660.2028     -4134.6675      1474.4647     -4134.6675     -5388.9012     -302.54989      1556.7835      5429.3073
    155000   1.0096776      1.0103046      7.3051785     -2668.1282     -4184.1591      1516.0309     -4184.1591     -5427.3406     -301.20027      1544.3818      5422.8052
    156000   1.0316721      1.0108679      7.3866213     -2598.651      -4147.7067      1549.0557     -4147.7067     -5411.2773     -300.51394      1564.0845      5582.4852
    157000   0.96056238     0.99180231     7.2199404     -2783.7386     -4226.023       1442.2844     -4226.023      -5479.0252     -299.47162      1552.4738      5212.7884
    158000   0.95687        0.98869387     7.8264323     -2666.0836     -4102.8239      1436.7403     -4102.8239     -5462.8957     -301.42159      1661.4934      6002.1704
    159000   0.96717108     0.98211308     7.5690185     -2715.3959     -4167.6033      1452.2074     -4167.6033     -5496.373      -297.94348      1626.7132      5667.7565
    160000   1.017954       1.0215501      7.3368868     -2622.8159     -4151.2738      1528.4579     -4151.2738     -5399.6645     -301.68879      1550.0795      5503.2364
    161000   1.0117098      1.0228548      7.6790221     -2619.3246     -4138.4069      1519.0823     -4138.4069     -5462.9822     -303.06209      1627.6374      5885.6635
    162000   1.0589382      1.0441839      7.3195232     -2562.4391     -4152.4348      1589.9957     -4152.4348     -5383.2175     -303.57867      1534.3614      5544.3819
    163000   0.99937692     1.0030438      7.5696688     -2704.1497     -4204.7142      1500.5645     -4204.7142     -5522.2489     -300.62749      1618.1622      5679.7229
    164000   0.97421647     0.98893573     7.5102561     -2646.9055     -4109.6915      1462.786      -4109.6915     -5402.9732     -301.64481      1594.9265      5671.1639
    165000   0.98115411     0.9747045      6.9893713     -2728.794      -4201.9969      1473.2029     -4201.9969     -5394.6721     -300.99686      1493.672       5012.3635
    166000   0.98481057     0.99065617     7.3530146     -2614.9396     -4093.6327      1478.6931     -4093.6327     -5347.6196     -300.3918       1554.3787      5528.9752
    167000   0.99700977     0.98913271     7.3199414     -2647.3683     -4144.3785      1497.0102     -4144.3785     -5413.6294     -294.78895      1564.0398      5459.9158
    168000   0.99884182     1.0151392      7.3613065     -2704.4919     -4204.2529      1499.761      -4204.2529     -5472.7714     -299.74098      1568.2595      5448.6067
    169000   1.0374656      1.0097763      7.2291489     -2608.0554     -4165.8101      1557.7547     -4165.8101     -5410.9418     -298.33381      1543.4655      5398.6706
    170000   0.9982715      0.98292025     7.6114713     -2604.8142     -4103.7189      1498.9047     -4103.7189     -5413.4689     -303.42934      1613.1793      5825.3573
    171000   1.0350747      1.0260092      7.2224036     -2609.5351     -4163.6997      1554.1646     -4163.6997     -5396.7536     -302.25354      1535.3074      5389.72
    172000   0.98987147     0.98960609     7.5544884     -2600.1239     -4086.416       1486.292      -4086.416      -5390.1582     -298.16145      1601.9037      5766.9354
    173000   1.0291132      1.0190296      7.5561334     -2616.8782     -4162.0917      1545.2134     -4162.0917     -5465.6291     -299.99183      1603.5293      5752.0031
    174000   1.0363263      1.0179945      7.5961441     -2553.1371     -4109.181       1556.044      -4109.181      -5408.3458     -299.53233      1598.6971      5860.0585
    175000   1.0276213      1.0384448      7.2174441     -2656.6482     -4199.6216      1542.9734     -4199.6216     -5444.0555     -298.19629      1542.6302      5337.114
    176000   1.0069118      1.0222379      7.5227182     -2574.2847     -4086.1627      1511.878      -4086.1627     -5366.4756     -299.27559      1579.5885      5757.5873
    177000   0.99322739     0.98212259     7.4905251     -2629.2539     -4120.5848      1491.3309     -4120.5848     -5407.0844     -297.09518      1583.5948      5666.9623
    178000   1.0148037      1.0105442      7.198984      -2702.7115     -4226.4393      1523.7278     -4226.4393     -5473.1852     -299.68325      1546.4292      5270.605
    179000   1.0093348      1.0189513      7.5160205     -2587.0412     -4102.5573      1515.5161     -4102.5573     -5381.0544     -300.80578      1579.3029      5737.4127
    180000   1.0439941      1.0315467      7.3781102     -2610.2238     -4177.7809      1567.5571     -4177.7809     -5431.1032     -301.98432      1555.3066      5561.486
    181000   1.0073172      1.0001141      7.5266337     -2680.5372     -4193.0241      1512.4868     -4193.0241     -5495.0706     -301.63133      1603.6778      5655.6714
    182000   0.99524668     0.98565342     7.5091444     -2654.5033     -4148.8661      1494.3629     -4148.8661     -5432.5014     -303.4148       1587.0501      5662.3348
    183000   0.98863963     0.9999418      7.5751487     -2672.7627     -4157.2051      1484.4424     -4157.2051     -5474.8134     -303.21915      1620.8275      5717.1792
    184000   0.96069706     0.9499179      7.3256521     -2715.2054     -4157.692       1442.4866     -4157.692      -5423.3749     -300.5107       1566.1936      5398.4038
    185000   0.98483295     0.9788645      7.395142      -2704.8639     -4183.5905      1478.7267     -4183.5905     -5470.7971     -295.03302      1582.2396      5485.7096
    186000   1.0289884      1.0068695      7.3987977     -2664.3296     -4209.3557      1545.0261     -4209.3557     -5491.1537     -295.98333      1577.7813      5530.2928
    187000   1.0080624      1.0042631      7.5308225     -2612.3941     -4125.9998      1513.6057     -4125.9998     -5414.5344     -304.16931      1592.7039      5728.4538
    188000   1.0029886      1.0246333      7.350508      -2663.8856     -4169.873       1505.9874     -4169.873      -5440.49       -301.00565      1571.6227      5477.253
    189000   1.027297       1.0064597      7.4669546     -2577.2478     -4119.7342      1542.4865     -4119.7342     -5386.5411     -305.60065      1572.4076      5692.8626
    190000   1.0240356      1.0203935      7.7667405     -2649.9467     -4187.5361      1537.5894     -4187.5361     -5531.4037     -303.58066      1647.4482      5952.1949
    191000   0.98615893     0.98334518     7.1214944     -2679.6536     -4160.3712      1480.7176     -4160.3712     -5369.2863     -301.78901      1510.704       5207.8384
    192000   1.0321351      1.0168149      7.5681169     -2644.4445     -4194.1954      1549.7509     -4194.1954     -5498.9866     -301.84831      1606.6395      5737.7094
    193000   1.0055268      1.0087188      7.5153063     -2639.9716     -4149.7701      1509.7985     -4149.7701     -5448.1671     -303.18001      1601.577       5683.6913
    194000   1.0017166      0.98441606     7.2602627     -2683.6354     -4187.7129      1504.0775     -4187.7129     -5430.5699     -304.45167      1547.3087      5357.5511
    195000   1.0233457      1.0009636      7.4458215     -2611.9354     -4148.4889      1536.5535     -4148.4889     -5410.9059     -302.62771      1565.0447      5634.7687
    196000   0.96564444     0.99415226     7.4121177     -2655.8383     -4105.7534      1449.9151     -4105.7534     -5388.9794     -303.26304      1586.489       5553.5368
    197000   1.0503036      1.0092121      7.9622867     -2508.8967     -4085.9276      1577.0309     -4085.9276     -5458.7344     -300.0732       1672.8801      6309.8244
    198000   1.0359804      0.99770307     7.3243915     -2662.212      -4217.7366      1555.5246     -4217.7366     -5468.8119     -302.06636      1553.1416      5450.0009
    199000   0.9660147      1.008729       7.3384885     -2651.4974     -4101.9684      1450.4711     -4101.9684     -5357.0898     -297.87459      1552.996       5476.3289
    200000   0.98290092     0.98068014     7.6863796     -2571.2451     -4047.0708      1475.8257     -4047.0708     -5366.3562     -301.16342      1620.4488      5941.8919
    201000   0.98185689     0.99564379     7.3617547     -2691.7397     -4165.9978      1474.2581     -4165.9978     -5445.2248     -305.63427      1584.8612      5461.8554
    202000   1.0062271      1.0462372      7.7564209     -2632.8215     -4143.6715      1510.85       -4143.6715     -5494.791      -297.86111      1648.9807      5957.8905
    203000   1.0156591      1.0007054      7.6649864     -2623.0771     -4148.0893      1525.0122     -4148.0893     -5462.8389     -300.26538      1615.015       5866.3656
    204000   1.0082129      1.0024767      7.4379471     -2587.352      -4101.1837      1513.8317     -4101.1837     -5383.0629     -296.95306      1578.8322      5650.6308
    205000   1.0064843      1.0116582      7.2495184     -2702.302      -4213.5383      1511.2363     -4213.5383     -5458.1261     -303.27691      1547.8648      5326.9844
    206000   0.99657049     0.99655737     7.7029249     -2559.8194     -4056.17        1496.3506     -4056.17       -5372.5105     -298.30809      1614.6486      5971.6425
    207000   1.01921        1.0098062      7.4459009     -2642.3554     -4172.6992      1530.3438     -4172.6992     -5447.4165     -301.31914      1576.0364      5604.4366
    208000   1.0002214      0.97882098     7.4353088     -2701.1125     -4202.9449      1501.8324     -4202.9449     -5489.3604     -299.36553      1585.781       5533.9482
    209000   1.0153331      1.0056572      7.1769636     -2671.2347     -4195.7573      1524.5226     -4195.7573     -5426.0386     -300.86816      1531.1495      5277.6928
    210000   1.0041348      1.0031702      7.5748383     -2556.7705     -4064.4788      1507.7083     -4064.4788     -5360.0343     -294.99171      1590.5472      5832.8277
    211000   0.97266278     0.98277023     7.5711314     -2646.1522     -4106.6053      1460.4532     -4106.6053     -5414.4939     -301.35611      1609.2447      5739.3403
    212000   1.0116628      1.0110317      7.2930366     -2680.6188     -4199.6305      1519.0117     -4199.6305     -5457.789      -300.13091      1558.2894      5396.8667
    213000   1.0368577      1.0229233      7.3102207     -2634.3811     -4191.2229      1556.8418     -4191.2229     -5453.7127     -302.64022      1565.13        5462.1368
    214000   0.98569898     0.97895613     7.1475154     -2674.677      -4154.7041      1480.027      -4154.7041     -5371.2477     -294.96048      1511.5041      5241.6348
    215000   0.98021065     0.99036136     7.377797      -2759.702      -4231.4883      1471.7863     -4231.4883     -5515.4852     -297.91238      1581.9092      5411.6608
    216000   1.0364654      1.0261535      7.2754288     -2587.1285     -4143.3812      1556.2527     -4143.3812     -5390.2727     -299.75763      1546.6492      5470.8553
    217000   0.94531354     0.96826244     7.4179911     -2685.1456     -4104.5338      1419.3883     -4104.5338     -5375.0025     -300.67137      1571.1401      5530.7347
    218000   1.0303497      0.98341355     7.3653568     -2676.8279     -4223.8979      1547.07       -4223.8979     -5487.4949     -301.44396      1565.041       5480.7567
    219000   1.019633       1.0085918      7.5726632     -2600.3578     -4131.3367      1530.979      -4131.3367     -5438.228      -302.51551      1609.4068      5786.8313
    220000   0.97903327     0.98670254     7.5338366     -2669.3899     -4139.4083      1470.0185     -4139.4083     -5457.3843     -296.89324      1614.8692      5674.7964
    221000   0.99447319     1.0069605      7.1503207     -2712.1692     -4205.3707      1493.2015     -4205.3707     -5434.9541     -298.03652      1527.62        5207.2496
    222000   1.0147003      1.0122457      7.439029      -2622.1369     -4145.7095      1523.5725     -4145.7095     -5430.2169     -302.44446      1586.9519      5617.0442
    223000   1.0014405      1.0148028      7.2690177     -2718.2596     -4221.9225      1503.663      -4221.9225     -5493.0261     -299.87612      1570.9797      5332.6236
    224000   0.99326758     0.98549718     7.2647736     -2665.2668     -4156.6581      1491.3913     -4156.6581     -5401.6553     -301.18706      1546.1843      5380.9156
    225000   1.0085526      1.0140428      7.420589      -2699.9647     -4214.3065      1514.3418     -4214.3065     -5498.5533     -300.61077      1584.8576      5518.7929
    226000   1.0019667      1.0085702      7.02887       -2729.2623     -4233.7154      1504.4531     -4233.7154     -5448.4804     -294.28138      1509.0464      5055.6425
    227000   0.98803879     0.99821084     7.2348896     -2675.2362     -4158.7765      1483.5403     -4158.7765     -5393.074      -296.02264      1530.3202      5337.8479
    228000   1.0807762      1.0423251      7.4795989     -2512.0427     -4134.8281      1622.7855     -4134.8281     -5411.467      -300.51955      1577.1585      5772.072
    229000   1.0065919      0.97989496     7.5142598     -2639.3808     -4150.7785      1511.3977     -4150.7785     -5447.4592     -302.59597      1599.2766      5683.1229
    230000   1.0087239      1.0059654      7.2536596     -2680.8862     -4195.4851      1514.5989     -4195.4851     -5454.8654     -298.30928      1557.6895      5352.9868
    231000   1.0182449      1.0087828      7.4532838     -2564.3207     -4093.2155      1528.8948     -4093.2155     -5382.0136     -299.09836      1587.8965      5690.6483
    232000   1.0264976      1.0266935      7.4784841     -2544.9455     -4086.2316      1541.2861     -4086.2316     -5352.229      -303.33462      1569.3319      5737.9344
    233000   1.0169311      1.0097207      7.3033992     -2623.9423     -4150.8643      1526.922      -4150.8643     -5405.8528     -300.18316      1555.1717      5465.0204
    234000   1.0137782      1.0039977      7.4441356     -2558.0027     -4080.1906      1522.188      -4080.1906     -5346.5652     -304.76592      1571.1405      5686.8343
    235000   1.0132638      0.99943576     7.7730602     -2572.4961     -4093.9118      1521.4156     -4093.9118     -5446.86       -301.27532      1654.2235      6036.645
    236000   1.0177631      0.995556       7.5129437     -2547.7296     -4075.9008      1528.1712     -4075.9008     -5337.6737     -303.49083      1565.2636      5773.3166
    237000   1.0036627      0.99378808     7.7265778     -2671.8783     -4178.8778      1506.9995     -4178.8778     -5530.1916     -304.04147      1655.3553      5885.7807
    238000   1.0258448      1.0014498      7.2015701     -2655.2278     -4195.5338      1540.306      -4195.5338     -5422.5836     -303.39169      1530.4415      5320.9529
    239000   0.99532288     0.9939565      7.1927272     -2618.4387     -4112.916       1494.4773     -4112.916      -5352.5419     -300.3789       1540.0049      5347.948
    240000   1.0050696      0.99383054     7.6726966     -2619.1516     -4128.2635      1509.1119     -4128.2635     -5443.7778     -295.86565      1611.3799      5878.8307
    241000   1.0296931      1.0170532      7.3702631     -2584.6038     -4130.688       1546.0842     -4130.688      -5397.0246     -299.7406       1566.0772      5578.4147
    242000   0.98394917     0.99987924     7.6038558     -2669.2481     -4146.6478      1477.3997     -4146.6478     -5453.9743     -303.03697      1610.3634      5752.4887
    243000   0.93398338     0.95225037     7.4629169     -2766.989      -4169.3651      1402.3761     -4169.3651     -5471.7991     -301.0435       1603.4775      5498.6493
    244000   1.026488       1.0185709      7.7643641     -2561.4154     -4102.6872      1541.2718     -4102.6872     -5436.1006     -300.60889      1634.0223      6038.0942
    245000   1.0014414      1.0090168      7.2112269     -2629.3289     -4132.9931      1503.6642     -4132.9931     -5367.2855     -300.90278      1535.1952      5357.5473
    246000   0.99167817     0.99417002     7.2423874     -2690.5143     -4179.5191      1489.0048     -4179.5191     -5415.0542     -301.46192      1536.997       5330.8741
    247000   0.97019589     0.9936667      7.4472829     -2676.5069     -4133.2561      1456.7491     -4133.2561     -5427.488      -300.38444      1594.6163      5571.8158
    248000   1.0273068      1.0006374      7.3135477     -2629.3384     -4171.8397      1542.5012     -4171.8397     -5414.0358     -302.81433      1545.0105      5470.8643
    249000   0.97910592     0.98202098     7.4453436     -2730.31       -4200.4375      1470.1275     -4200.4375     -5496.8339     -305.2337       1601.6301      5515.8649
    250000   0.98957259     0.9873441      7.4122165     -2644.6135     -4130.4568      1485.8432     -4130.4568     -5408.9192     -301.0527       1579.5152      5564.871
    251000   1.0357178      1.0186457      7.4231158     -2582.5473     -4137.6777      1555.1303     -4137.6777     -5414.3395     -300.78805      1577.4499      5639.0089
    252000   1.0153909      1.0198899      7.0825128     -2671.193      -4195.8024      1524.6094     -4195.8024     -5412.4231     -300.68577      1517.3064      5173.1245
    253000   1.0208409      1.0082486      7.8355301     -2621.6211     -4154.4137      1532.7926     -4154.4137     -5500.8747     -302.9944       1649.4554      6056.7092
    254000   1.0711365      1.0333179      7.6563735     -2482.2288     -4090.5403      1608.3115     -4090.5403     -5402.214      -300.75567      1612.4293      5997.6745
    255000   1.0119503      0.97305171     7.4843447     -2581.5755     -4101.0189      1519.4434     -4101.0189     -5374.9142     -300.23705      1574.1323      5707.7954
    256000   1.0154042      0.98982979     7.1678991     -2716.2638     -4240.8932      1524.6294     -4240.8932     -5478.2992     -302.47474      1539.8807      5222.6243
    257000   1.0281152      1.0069695      7.5893567     -2573.3731     -4117.088       1543.7149     -4117.088      -5418.7131     -300.89812      1602.5231      5832.3051
    258000   1.0082285      1.0310937      7.3828127     -2625.6699     -4139.5249      1513.8551     -4139.5249     -5392.2129     -303.98863      1556.6765      5551.2481
    259000   0.93294626     0.964533       7.1068646     -2845.1997     -4246.0185      1400.8188     -4246.0185     -5483.4707     -303.23765      1540.6898      5026.0889
    260000   0.96638748     0.96750699     7.2066183     -2724.6773     -4175.7081      1451.0308     -4175.7081     -5423.2793     -299.37329      1546.9445      5257.0947
    261000   1.0115675      0.98967111     7.5701977     -2590.0264     -4108.8951      1518.8687     -4108.8951     -5402.0181     -300.53216      1593.6552      5794.432
    262000   1.012851       1.0284202      7.2165312     -2650.9593     -4171.7551      1520.7957     -4171.7551     -5396.2015     -300.19681      1524.6433      5341.7917
    263000   1.0222911      1.001355       7.5715317     -2578.4818     -4113.4518      1534.97       -4113.4518     -5409.7065     -300.76961      1597.0243      5807.4541
    264000   0.97394204     0.9976792      7.1216809     -2684.5875     -4146.9614      1462.374      -4146.9614     -5364.8523     -299.03645      1516.9273      5203.1111
    265000   0.99338071     0.99365527     7.5343535     -2652.9256     -4144.4867      1491.5611     -4144.4867     -5447.4855     -299.12193      1602.1207      5691.8332
    266000   0.98168408     0.97572713     7.3391461     -2605.1831     -4079.1817      1473.9987     -4079.1817     -5322.0297     -298.79545      1541.6434      5523.3715
    267000   1.0384416      1.0276196      7.656743      -2539.9346     -4099.1546      1559.22       -4099.1546     -5402.7237     -297.53967      1601.1088      5940.378
    268000   1.0391839      1.0158734      7.4823133     -2585.0713     -4145.406       1560.3346     -4145.406      -5429.6037     -302.58551      1586.7832      5702.0498
    269000   1.0419589      1.0407283      7.2905738     -2586.1657     -4150.6669      1564.5013     -4150.6669     -5397.795      -300.96444      1548.0925      5488.5921
    270000   1.0178427      0.99953592     7.661172      -2591.5948     -4119.8856      1528.2908     -4119.8856     -5429.7221     -302.59415      1612.4307      5893.6232
    271000   1.0019353      0.99462039     7.2669745     -2690.7304     -4195.1363      1504.4059     -4195.1363     -5454.9801     -302.17242      1562.0162      5357.8897
    272000   0.99621673     1.0084115      7.6217621     -2599.2579     -4095.0773      1495.8194     -4095.0773     -5417.4713     -302.13215      1624.5261      5842.3113
    273000   1.0015176      1.0053173      7.5901442     -2628.7728     -4132.5515      1503.7787     -4132.5515     -5431.0429     -303.1373       1601.6287      5777.7775
    274000   1.014067       1.0086824      7.5499113     -2604.8415     -4127.4631      1522.6215     -4127.4631     -5431.5506     -297.12868      1601.2162      5757.1485
    275000   1.0434238      1.0411175      7.3423244     -2586.6273     -4153.3282      1566.7009     -4153.3282     -5407.8851     -296.29943      1550.8564      5545.4474
    276000   1.0041932      0.97901771     7.4559084     -2625.8828     -4133.6789      1507.7962     -4133.6789     -5398.4758     -300.00623      1564.8031      5631.9932
    277000   0.97545596     1.0046061      7.2187684     -2678.7461     -4143.3933      1464.6471     -4143.3933     -5394.791      -298.05399      1549.4517      5316.4828
    278000   0.99692835     0.97139891     7.3256072     -2637.3755     -4134.2634      1496.8879     -4134.2634     -5387.0315     -305.36661      1558.1347      5476.1839
    279000   1.0227753      1.0340111      7.3100568     -2649.3562     -4185.0534      1535.6972     -4185.0534     -5450.7646     -297.84981      1563.561       5446.9802
    280000   0.97582757     1.0016673      7.3025306     -2730.1802     -4195.3853      1465.2051     -4195.3853     -5459.8589     -300.54478      1565.0183      5357.8205
    281000   1.0109967      1.0063627      7.3347806     -2667.7433     -4185.7548      1518.0116     -4185.7548     -5455.7167     -298.97096      1568.9328      5455.9763
    282000   0.96616502     0.98153329     7.4214803     -2684.7748     -4135.4716      1450.6968     -4135.4716     -5425.1237     -299.8173       1589.4693      5534.97
    283000   0.98532399     0.97779517     7.1240623     -2718.5509     -4198.0149      1479.464      -4198.0149     -5417.8224     -301.51396      1521.3216      5171.7852
    284000   1.0055629      1.0233969      7.7942824     -2683.3314     -4193.1841      1509.8527     -4193.1841     -5541.1897     -302.27572      1650.2813      5949.3145
    285000   0.97093213     1.0037376      7.1344697     -2776.0232     -4233.8778      1457.8546     -4233.8778     -5473.3231     -300.64316      1540.0885      5125.8397
    286000   0.98855489     0.98952582     7.353549      -2664.1597     -4148.4749      1484.3152     -4148.4749     -5411.981      -297.88155      1561.3876      5480.347
    287000   0.99023364     1.0212958      7.2635663     -2736.5728     -4223.4086      1486.8358     -4223.4086     -5472.9942     -299.83954      1549.4252      5308.2726
    288000   1.0402675      1.0163102      7.5088237     -2590.3617     -4152.3233      1561.9616     -4152.3233     -5446.0932     -296.90237      1590.6722      5726.1213
    289000   0.96936086     0.98150877     7.5412932     -2708.1405     -4163.6359      1455.4953     -4163.6359     -5474.1924     -299.77254      1610.329       5644.3044
    290000   1.0449906      1.0309621      7.3037321     -2598.7468     -4167.8002      1569.0534     -4167.8002     -5411.7813     -302.56296      1546.544       5490.5846
    291000   0.96423018     0.98235236     7.6336194     -2601.4783     -4049.2699      1447.7916     -4049.2699     -5366.3398     -300.85507      1617.925       5853.2235
    292000   1.0304432      1.0292654      7.4061303     -2634.6854     -4181.8959      1547.2105     -4181.8959     -5455.5087     -301.98527      1575.598       5568.0583
    293000   1.0366203      1.0249927      7.2975086     -2608.2416     -4164.727       1556.4854     -4164.727      -5421.7382     -298.43987      1555.4511      5474.1969
    294000   0.98738377     1.0176713      7.4956755     -2684.1549     -4166.7116      1482.5567     -4166.7116     -5470.3208     -300.20944      1603.8185      5617.7656
    295000   1.0374769      1.0190237      7.4555712     -2590.8529     -4148.6245      1557.7715     -4148.6245     -5420.2036     -301.37788      1572.957       5666.6497
    296000   1.0560213      1.0526278      7.7606552     -2492.1286     -4077.7446      1585.616      -4077.7446     -5399.5946     -303.55824      1625.4082      6103.2732
    297000   1.0093509      1.0267635      7.2815819     -2668.3037     -4183.8441      1515.5404     -4183.8441     -5433.3409     -300.75617      1550.253       5396.4949
    298000   1.0413007      1.0534333      7.542253      -2656.0898     -4219.6029      1563.5131     -4219.6029     -5529.5376     -300.53023      1610.465       5697.4181
    299000   0.96162355     0.97507205     7.4708392     -2697.046      -4140.9237      1443.8778     -4140.9237     -5426.5831     -301.62864      1587.288       5577.3668
    300000   0.95123735     0.97727483     7.4699552     -2690.2952     -4118.578       1428.2829     -4118.578      -5410.5033     -303.93408      1595.8593      5583.1385
    301000   1.0124518      1.0009588      7.0984739     -2694.9318     -4215.1281      1520.1963     -4215.1281     -5436.8875     -298.70525      1520.4647      5167.0637
    302000   0.98860654     0.96950538     7.0877085     -2694.3274     -4178.7202      1484.3927     -4178.7202     -5400.8706     -303.40495      1525.5554      5155.7446
    303000   0.97479406     0.98570119     7.4979184     -2733.5375     -4197.1908      1463.6533     -4197.1908     -5501.0852     -301.25261      1605.1471      5570.8672
    304000   1.0165331      1.014793       7.702092      -2546.3256     -4072.6501      1526.3244     -4072.6501     -5387.3475     -300.34022      1615.0376      5984.2139
    305000   1.0493241      1.0178019      7.1088577     -2594.1357     -4169.6959      1575.5602     -4169.6959     -5389.1958     -299.62347      1519.1234      5279.3603
    306000   1.004252       0.99662381     7.55145       -2664.5011     -4172.3854      1507.8843     -4172.3854     -5487.223      -305.15748      1619.9952      5699.1931
    307000   1.0020111      1.0103658      7.4957743     -2692.6756     -4197.1953      1504.5196     -4197.1953     -5492.8358     -298.26184      1593.9023      5609.3543
    308000   1.0182628      1.0138339      7.2148604     -2704.203      -4233.1245      1528.9215     -4233.1245     -5462.0554     -301.69878      1530.6296      5286.6976
    309000   1.0089349      1.0047421      7.3096909     -2714.1202     -4229.0359      1514.9157     -4229.0359     -5479.3311     -301.15454      1551.4498      5381.8109
    310000   1.0119024      1.0193991      7.4145998     -2584.8415     -4104.213       1519.3714     -4104.213      -5360.2392     -302.64297      1558.6692      5627.2826
    311000   1.0026636      1.0195137      7.2951639     -2677.4906     -4182.99        1505.4994     -4182.99       -5427.1328     -299.35754      1543.5003      5402.351
    312000   0.98646456     0.98542278     7.3425021     -2600.129      -4081.3056      1481.1765     -4081.3056     -5334.5622     -303.52912      1556.7857      5532.1425
    313000   0.9867752      0.9974716      7.7773326     -2571.6511     -4053.294       1481.643      -4053.294      -5389.4804     -295.26796      1631.4544      6042.2219
    314000   1.0037456      1.017553       7.3173144     -2617.4351     -4124.559       1507.1239     -4124.559      -5371.6968     -297.77341      1544.9112      5486.9396
    315000   0.9995263      1.001635       7.3147116     -2625.8927     -4126.6815      1500.7887     -4126.6815     -5375.1123     -301.02694      1549.4577      5475.5992
    316000   1.0539743      1.0268669      7.4835713     -2564.8241     -4147.3665      1582.5424     -4147.3665     -5420.2598     -301.24416      1574.1375      5723.6903
    317000   1.017502       1.010837       7.2762521     -2681.6088     -4209.388       1527.7792     -4209.388      -5454.1132     -303.48671      1548.2119      5377.2868
    318000   1.0606002      1.016004       7.7961365     -2516.1902     -4108.6814      1592.4912     -4108.6814     -5445.1821     -299.5715       1636.0722      6118.5093
    319000   1.0226683      1.0106852      7.3577751     -2600.2735     -4135.81        1535.5365     -4135.81       -5400.8785     -307.01976      1572.0883      5548.9139
    320000   1.0248911      1.0050815      7.2895432     -2675.1393     -4214.0134      1538.8741     -4214.0134     -5468.1089     -302.56546      1556.661       5398.477
    321000   1.0170151      1.0321411      7.4552262     -2618.7781     -4145.8262      1527.0481     -4145.8262     -5408.7853     -299.81249      1562.7716      5638.3423
    322000   0.97663335     0.9874186      7.4631572     -2758.7601     -4225.1751      1466.415      -4225.1751     -5518.3634     -304.01646      1597.2048      5507.1444
    323000   1.0291842      1.0089831      7.6010641     -2638.9691     -4184.2892      1545.32       -4184.2892     -5500.6913     -300.7777       1617.1798      5779.6757
    324000   0.96198821     0.98112171     7.256794      -2705.8572     -4150.2825      1444.4253     -4150.2825     -5416.6526     -298.30727      1564.6774      5331.4874
    325000   0.99949189     0.99446298     7.4588277     -2684.5427     -4185.2798      1500.7371     -4185.2798     -5470.4764     -304.27926      1589.4758      5576.5666
    326000   0.97982355     1.0053734      7.5953162     -2638.0904     -4109.2955      1471.2051     -4109.2955     -5440.0041     -298.77707      1629.4857      5774.1882
    327000   1.0100916      1.0130133      7.1696092     -2681.9387     -4198.5912      1516.6525     -4198.5912     -5411.4301     -303.45276      1516.2916      5258.8433
    328000   0.98618763     0.97681484     7.5128928     -2660.8716     -4141.6323      1480.7607     -4141.6323     -5438.8296     -299.81954      1597.0169      5660.1182
    329000   0.9889396      0.99806678     7.2153852     -2704.5958     -4189.4886      1484.8928     -4189.4886     -5423.3681     -304.21356      1538.0931      5286.886
    330000   1.0344628      1.0247888      7.3429718     -2637.8063     -4191.0522      1553.2459     -4191.0522     -5444.1932     -303.71977      1556.8608      5494.9855
    331000   1.0225287      1.0112994      7.6370242     -2599.728      -4135.0549      1535.3269     -4135.0549     -5458.3972     -300.62724      1623.9695      5858.7449
    332000   1.006206       1.0126639      7.6364731     -2605.2514     -4116.0697      1510.8183     -4116.0697     -5442.5124     -297.16055      1623.6033      5852.6111
    333000   1.0400391      1.0139833      7.1750968     -2615.2649     -4176.8836      1561.6187     -4176.8836     -5399.659      -300.27009      1523.0455      5331.595
    334000   1.057611       1.010886       7.3998192     -2608.3267     -4196.3296      1588.0029     -4196.3296     -5458.5619     -301.61964      1563.8519      5587.4271
    335000   1.0122892      0.99281573     7.6346077     -2587.8468     -4107.799       1519.9523     -4107.799      -5426.4752     -298.24071      1616.9169      5867.9497
    336000   1.0339739      1.0297432      7.3139409     -2633.6632     -4186.175       1552.5118     -4186.175      -5441.3455     -297.60142      1552.7719      5466.9751
    337000   0.98271902     0.97877044     7.8703804     -2583.4232     -4058.9758      1475.5526     -4058.9758     -5424.4662     -294.23057      1659.721       6133.5061
    338000   0.96551488     0.97572549     7.1899346     -2763.3349     -4213.0555      1449.7206     -4213.0555     -5446.9667     -299.85359      1533.7648      5199.9588
    339000   0.98651418     0.9907623      7.2828866     -2608.4057     -4089.6567      1481.251      -4089.6567     -5334.1336     -293.64551      1538.1224      5457.838
    340000   1.0173004      0.99444293     7.5228509     -2620.6574     -4148.1339      1527.4765     -4148.1339     -5439.5739     -301.01327      1592.4532      5711.3616
    341000   0.97967105     0.98932425     7.5315548     -2646.3873     -4117.3634      1470.9761     -4117.3634     -5415.4476     -303.75422      1601.8384      5695.2717
    342000   1.0181915      1.0244431      7.4476866     -2635.5275     -4164.3421      1528.8145     -4164.3421     -5452.6208     -300.54876      1588.8275      5613.2424
    343000   1.0106059      0.99829138     7.4771218     -2609.0458     -4126.4705      1517.4247     -4126.4705     -5423.4475     -299.92635      1596.9033      5672.3254
    344000   1.021752       1.0088723      7.5083739     -2607.7947     -4141.9554      1534.1607     -4141.9554     -5434.3132     -297.57178      1589.9296      5708.19
    345000   1.0121728      1.0032135      7.7082527     -2559.7895     -4079.567       1519.7775     -4079.567      -5391.2059     -298.05366      1609.6926      5977.5734
    346000   0.97272195     0.99075605     7.2829745     -2740.2004     -4200.7424      1460.542      -4200.7424     -5448.1131     -303.49896      1550.8697      5326.1407
    347000   0.95384176     0.96545213     7.3862028     -2670.8568     -4103.0502      1432.1934     -4103.0502     -5369.684      -302.2785       1568.9123      5509.816
    348000   0.98596504     1.0062345      7.5041496     -2644.3585     -4124.785       1480.4265     -4124.785      -5426.2225     -302.06837      1603.5059      5666.9476
    349000   0.96865887     0.96636189     7.7253376     -2637.9315     -4092.3728      1454.4413     -4092.3728     -5451.1452     -293.82267      1652.5951      5918.3538
    350000   0.96917787     0.9668905      7.4571725     -2704.7663     -4159.9869      1455.2206     -4159.9869     -5440.9891     -301.50339      1582.5056      5554.5098
    351000   1.016204       1.0316326      7.1642135     -2690.4724     -4216.3028      1525.8304     -4216.3028     -5440.4217     -304.29541      1528.4143      5244.3335
    352000   1.0122432      1.0080882      7.7601972     -2581.6019     -4101.4851      1519.8832     -4101.4851     -5445.0405     -300.87357      1644.429       6013.2926
    353000   0.99170611     0.97583079     7.607741      -2598.7819     -4087.8286      1489.0467     -4087.8286     -5401.5089     -296.14557      1609.8259      5827.258
    354000   1.0136285      0.99615299     7.5453879     -2580.7232     -4102.6864      1521.9632     -4102.6864     -5399.8448     -301.26686      1598.4253      5776.2568
    355000   0.98867272     0.97526778     7.1601471     -2723.1538     -4207.6459      1484.4921     -4207.6459     -5446.0327     -300.56866      1538.9554      5207.1485
    356000   1.0146452      0.99644714     7.4781808     -2636.6369     -4160.1266      1523.4897     -4160.1266     -5440.8799     -299.93416      1580.6875      5645.9071
    357000   0.98984646     1.0115445      7.4830775     -2630.831      -4117.0855      1486.2545     -4117.0855     -5413.7285     -299.9874       1596.6304      5657.1364
    358000   1.0161834      0.97760528     7.7656727     -2524.2746     -4050.0739      1525.7994     -4050.0739     -5392.0523     -296.79249      1638.7709      6076.6844
    359000   0.97962794     0.9869906      7.2912573     -2731.2672     -4202.1786      1470.9114     -4202.1786     -5467.837      -296.74935      1562.4078      5344.2476
    360000   1.0099307      1.0258912      7.5293381     -2651.2925     -4167.7034      1516.4109     -4167.7034     -5483.6099     -300.74452      1616.651       5687.9114
    361000   0.97958283     0.98537545     7.5300523     -2639.9983     -4110.842       1470.8436     -4110.842      -5412.4225     -298.47515      1600.0557      5699.9966
    362000   1.0273815      1.0232438      7.7450219     -2557.4434     -4100.0567      1542.6133     -4100.0567     -5443.9178     -302.02068      1645.8818      6020.6436
    363000   1.026881       1.0069281      7.4822916     -2596.84       -4138.7018      1541.8619     -4138.7018     -5434.6506     -299.49692      1595.4457      5690.257
    364000   0.98046795     0.98310854     7.5462036     -2700.0447     -4172.2173      1472.1726     -4172.2173     -5478.5986     -302.27562      1608.6569      5657.8388
    365000   1.0394735      1.0135978      7.4125589     -2589.9608     -4150.7302      1560.7695     -4150.7302     -5417.7326     -302.73505      1569.7374      5619.903
[...]
    393000   0.97161096     0.996086       7.2105771     -2692.5662     -4151.4401      1458.8739     -4151.4401     -5402.4807     -298.3876       1549.4282      5293.5903
    394000   1.0257474      1.0109353      7.2332118     -2631.7016     -4171.8613      1540.1598     -4171.8613     -5404.974      -300.92714      1534.0398      5379.5243
    395000   1.0687592      1.0106539      7.5923897     -2545.8074     -4150.5493      1604.7419     -4150.5493     -5453.6948     -299.35156      1602.4971      5863.23
    396000   0.95753042     0.96863858     7.2812243     -2772.0496     -4209.7815      1437.7319     -4209.7815     -5481.6655     -304.99224      1576.8762      5292.353
    397000   0.96793467     0.99984501     7.4470761     -2701.8674     -4155.2213      1453.3539     -4155.2213     -5455.1954     -302.48137      1602.4555      5546.2262
    398000   0.96885761     0.99398004     7.4973178     -2667.4154     -4122.1551      1454.7397     -4122.1551     -5420.1624     -303.43488      1601.4423      5636.3241
    399000   0.9835364      0.99090627     7.4427164     -2686.9164     -4163.6963      1476.7799     -4163.6963     -5453.9452     -302.16533      1592.4142      5556.3486
    400000   1.0038557      0.99685932     7.486268      -2588.4164     -4095.7057      1507.2893     -4095.7057     -5384.1649     -301.90332      1590.3625      5703.0848
    401000   1.0175233      1.0113634      7.3587466     -2594.9354     -4122.7467      1527.8113     -4122.7467     -5368.7074     -300.25487      1546.2155      5555.3279
    402000   0.96418381     0.97899154     7.5675083     -2660.0528     -4107.7748      1447.722      -4107.7748     -5406.8882     -301.90154      1601.015       5721.427
    403000   1.0082037      0.99533021     7.3444043     -2612.6732     -4126.491       1513.8178     -4126.491      -5383.8274     -301.0318       1558.3682      5521.7051
    404000   1.0091726      1.0256368      7.4707725     -2584.8333     -4100.1059      1515.2726     -4100.1059     -5380.5661     -295.32336      1575.7836      5689.5057
    405000   1.0408816      1.0405755      8.1110897     -2485.0388     -4047.9225      1562.8838     -4047.9225     -5441.3615     -300.58896      1694.028       6498.4907
    406000   1.0471443      1.0152911      7.751677      -2562.1224     -4134.4095      1572.2872     -4134.4095     -5475.7331     -304.02802      1645.3516      6023.3356
    407000   1.0085927      1.0105844      7.3892761     -2628.5781     -4142.98        1514.4019     -4142.98       -5415.3887     -295.26265      1567.6713      5555.4986
    408000   0.99131406     0.99906845     7.3515078     -2677.8678     -4166.3258      1488.4581     -4166.3258     -5422.8922     -305.36836      1561.9348      5464.3782
    409000   0.95830243     0.99072202     7.6179353     -2617.6054     -4056.4965      1438.8911     -4056.4965     -5371.6524     -302.09577      1617.2517      5819.7254
    410000   1.03582        1.0187216      7.6362935     -2598.9563     -4154.2401      1555.2837     -4154.2401     -5469.4697     -298.16509      1613.3947      5858.7072
    411000   0.98466927     1.0068188      7.8101964     -2625.116      -4103.597       1478.4809     -4103.597      -5455.9456     -301.36156      1653.7102      6025.1557
    412000   1.0067828      1.0181834      7.6244912     -2642.7673     -4154.4516      1511.6843     -4154.4516     -5478.833      -300.18584      1624.5673      5801.8246
    413000   0.94468511     0.9661697      7.5092662     -2697.2016     -4115.6463      1418.4447     -4115.6463     -5406.2042     -302.40784      1592.9657      5619.7715
    414000   1.0005656      1.0127744      7.4772795     -2620.4752     -4122.8244      1502.3492     -4122.8244     -5398.1221     -300.99584      1576.2935      5661.0706
    415000   0.98341938     1.0189601      7.4385016     -2675.4022     -4152.0064      1476.6042     -4152.0064     -5432.4276     -299.57196      1579.9932      5563.1947
    416000   0.99958067     1.0207849      7.3481863     -2585.8694     -4086.7398      1500.8704     -4086.7398     -5333.4985     -303.66044      1550.4191      5552.6977
    417000   0.93613481     0.98265372     7.4540781     -2761.1713     -4166.7777      1405.6064     -4166.7777     -5494.7236     -302.44751      1630.3934      5494.6775
    418000   1.0662777      1.0434612      7.6874953     -2503.9706     -4104.9867      1601.016      -4104.9867     -5422.6223     -298.84026      1616.4759      6010.4021
    419000   1.0195982      1.0192361      7.4710224     -2616.3001     -4147.2268      1530.9266     -4147.2268     -5426.6881     -298.31082      1577.7721      5658.3156
    420000   1.0062564      0.99203116     7.5670168     -2635.9079     -4146.8018      1510.8939     -4146.8018     -5448.7336     -299.70069      1601.6325      5745.0275
    421000   1.0163489      1.0097656      7.3747381     -2633.7504     -4159.7982      1526.0478     -4159.7982     -5438.046      -299.71101      1577.9588      5534.2245
    422000   0.99145205     0.97584508     7.370996      -2656.4954     -4145.1606      1488.6653     -4145.1606     -5421.6497     -296.74352      1573.2326      5507.3349
    423000   0.97051656     0.98681408     7.4151883     -2604.7521     -4061.9827      1457.2306     -4061.9827     -5322.3035     -299.27365      1559.5945      5608.0239
    424000   1.0102036      1.0043548      7.4206908     -2595.0827     -4111.9034      1516.8207     -4111.9034     -5373.1254     -302.62076      1563.8428      5623.7876
    425000   1.0038622      0.99310985     7.5454644     -2612.7955     -4120.0945      1507.2991     -4120.0945     -5418.7988     -303.26545      1601.9697      5744.2693
    426000   0.99647541     0.98332839     7.3735584     -2663.2111     -4159.4189      1496.2078     -4159.4189     -5419.7491     -299.23623      1559.5665      5503.4573
    427000   1.000954       1.0116659      7.9061443     -2563.0848     -4066.0172      1502.9324     -4066.0172     -5441.1077     -299.38686      1674.4774      6193.455
    428000   1.0303069      1.0269528      7.6477536     -2556.8075     -4103.8133      1547.0058     -4103.8133     -5420.8855     -300.8419       1617.9141      5913.5489
    429000   0.96130247     0.98349514     7.2465291     -2775.8896     -4219.2852      1443.3957     -4219.2852     -5476.7872     -301.7229       1559.2248      5250.086
    430000   0.96786316     0.99404164     7.5871671     -2697.4653     -4150.7118      1453.2465     -4150.7118     -5471.6867     -297.32195      1618.2968      5705.7878
    431000   0.99406184     1.0074093      7.0332206     -2702.7922     -4195.376       1492.5839     -4195.376      -5394.8028     -299.29296      1498.7198      5086.9312
    432000   0.95002809     0.95455543     7.3154182     -2704.0668     -4130.5339      1426.4672     -4130.5339     -5383.0936     -301.16393      1553.7236      5398.2078
    433000   1.0267702      0.99366138     7.4803911     -2616.671      -4158.3665      1541.6955     -4158.3665     -5440.4522     -302.6033       1584.689       5668.3211
    434000   1.0116232      1.0004542      7.8356255     -2592.1406     -4111.0928      1518.9522     -4111.0928     -5478.3252     -295.10639      1662.3388      6086.2955
    435000   0.99131328     1.0019416      7.6852581     -2643.3274     -4131.7843      1488.4569     -4131.7843     -5453.8814     -301.13188      1623.229       5868.5674
    436000   1.0349726      1.007582       7.4481458     -2553.2825     -4107.2938      1554.0114     -4107.2938     -5375.3695     -300.29532      1568.371       5695.9959
    437000   0.99350774     1.006353       7.2146742     -2713.5897     -4205.3416      1491.7519     -4205.3416     -5455.7729     -298.61464      1549.046       5277.1046
    438000   0.99357088     0.99266348     7.4384818     -2693.8194     -4185.6661      1491.8467     -4185.6661     -5468.8964     -300.24941      1583.4798      5544.7556
    439000   0.96308185     0.9527906      7.5150201     -2656.3059     -4102.3733      1446.0674     -4102.3733     -5399.7653     -299.07253      1596.4646      5667.04
    440000   1.0368099      1.0149705      7.3497356     -2651.2296     -4207.9997      1556.7701     -4207.9997     -5466.5288     -302.03097      1560.5601      5489.0535
    441000   0.97620468     0.96853788     7.3797352     -2628.6593     -4094.4306      1465.7713     -4094.4306     -5362.2974     -301.52416      1569.391       5544.8502
    442000   1.0317038      1.0040085      7.6233615     -2565.9945     -4115.0978      1549.1033     -4115.0978     -5415.6387     -299.80658      1600.3475      5877.346
    443000   1.0147443      1.023523       7.2566009     -2681.5371     -4205.1756      1523.6385     -4205.1756     -5448.8933     -297.54008      1541.2578      5355.5937
    444000   0.99675661     0.98611657     7.214448      -2656.9383     -4153.5683      1496.63       -4153.5683     -5396.8669     -300.56222      1543.8608      5333.5055
    445000   0.97353318     0.99479764     7.4951446     -2605.4752     -4067.2352      1461.7601     -4067.2352     -5343.0392     -298.51319      1574.3171      5695.8573
    446000   1.0058962      1.0029453      7.3842776     -2607.3602     -4117.7133      1510.3531     -4117.7133     -5377.7362     -303.05984      1563.0827      5571.1803
    447000   1.0302724      1.0253524      7.3027172     -2662.7747     -4209.7287      1546.954      -4209.7287     -5472.3985     -303.29197      1565.9618      5425.4327
    448000   1.0378414      1.0362909      7.7191931     -2533.8626     -4092.1815      1558.3189     -4092.1815     -5422.1556     -301.96785      1631.9419      6015.6173
    449000   0.99723745     0.99507265     7.2037375     -2684.0011     -4181.3531      1497.352      -4181.3531     -5411.7006     -300.20126      1530.5488      5294.5802
    450000   1.0469425      1.0108318      7.6609105     -2470.5954     -4042.5796      1571.9841     -4042.5796     -5345.3875     -301.73305      1604.541       6014.333
    451000   0.97741076     1.0163597      7.3724217     -2725.2295     -4192.8117      1467.5823     -4192.8117     -5472.8694     -297.98323      1578.0409      5440.1799
    452000   1.0288914      1.0008448      7.6576073     -2526.1115     -4070.9919      1544.8804     -4070.9919     -5374.2474     -298.85671      1602.1122      5955.1584
    453000   0.99241199     0.99907238     7.7051883     -2610.8552     -4100.9618      1490.1066     -4100.9618     -5429.2801     -300.54513      1628.8634      5923.1136
    454000   0.99661423     1.0098705      7.5429615     -2528.2855     -4024.7017      1496.4163     -4024.7017     -5309.6387     -295.64004      1580.577       5826.0071
    455000   1.0680466      1.0573042      7.5227734     -2544.5103     -4148.1822      1603.6719     -4148.1822     -5439.173      -301.28812      1592.2789      5787.4228
    456000   0.98997416     0.99185146     7.3226763     -2662.6345     -4149.0807      1486.4462     -4149.0807     -5408.8786     -296.65665      1556.4546      5447.6788
    457000   1.0152174      1.0167286      7.1709713     -2677.2035     -4201.5525      1524.349      -4201.5525     -5426.843      -302.02283      1527.3133      5265.0872
    458000   0.98638521     1.0147135      7.5258341     -2553.0369     -4034.0943      1481.0574     -4034.0943     -5333.8022     -300.02867      1599.7365      5782.2861
    459000   0.98902101     1.0149139      7.4338313     -2663.2533     -4148.2684      1485.0151     -4148.2684     -5436.914      -300.36677      1589.0124      5570.1709
    460000   0.98427384     1.0095783      7.3617339     -2687.8273     -4165.7145      1477.8872     -4165.7145     -5441.8333     -298.91406      1575.0329      5465.7447
    461000   1.0237173      0.98634487     7.3164699     -2654.1838     -4191.2954      1537.1116     -4191.2954     -5450.0938     -302.46375      1561.2621      5449.2555
    462000   1.0303195      1.0267791      7.2580108     -2681.9344     -4228.9591      1547.0247     -4228.9591     -5479.6114     -299.98394      1550.6363      5356.7579
    463000   0.99857587     1.0030272      7.4335631     -2668.6354     -4167.9971      1499.3617     -4167.9971     -5455.9813     -301.47844      1589.4627      5564.4918
    464000   1.0036314      1.0060433      7.4487303     -2583.6079     -4090.5604      1506.9525     -4090.5604     -5362.6635     -303.77652      1575.8797      5666.318
    465000   1.0260519      0.99641075     7.2065312     -2706.7964     -4247.4133      1540.617      -4247.4133     -5483.4266     -299.16108      1535.1744      5274.8791
    466000   0.99370577     1.0235829      7.3825236     -2585.5553     -4077.6045      1492.0492     -4077.6045     -5333.8296     -299.57349      1555.7986      5591.0425
    467000   1.0493308      1.0370187      7.7489236     -2557.2036     -4132.7738      1575.5702     -4132.7738     -5455.6619     -302.31316      1625.2013      6025.2047
    468000   0.97640126     0.98001987     7.3924182     -2672.0068     -4138.0733      1466.0665     -4138.0733     -5415.0947     -299.55314      1576.5746      5515.5499
    469000   1.0350619      1.0101662      7.444803      -2610.7846     -4164.9299      1554.1454     -4164.9299     -5445.1041     -301.9301       1582.1043      5634.7916
    470000   0.98874284     0.99836845     7.1146444     -2691.4374     -4176.0347      1484.5974     -4176.0347     -5385.3442     -294.35047      1503.66        5188.4678
    471000   0.9658127      0.9930303      7.1811837     -2660.9652     -4111.1329      1450.1678     -4111.1329     -5337.3251     -304.9204       1531.1126      5292.6364
    472000   0.97407163     0.97892012     7.2595246     -2702.2682     -4164.8368      1462.5686     -4164.8368     -5397.5871     -304.66845      1537.4188      5338.1007
    473000   1.0148894      0.9933198      7.5251459     -2612.8006     -4136.6571      1523.8565     -4136.6571     -5431.2167     -301.56447      1596.1241      5721.7602
    474000   0.97415003     0.99155947     7.5815392     -2677.389      -4140.0753      1462.6863     -4140.0753     -5466.0229     -300.3607       1626.3083      5719.6308
    475000   1.0359371      1.0040307      7.2699235     -2611.6065     -4167.0661      1555.4596     -4167.0661     -5402.0216     -296.88628      1531.8418      5440.2798
    476000   0.98335843     0.99833895     7.9009125     -2605.8412     -4082.3538      1476.5127     -4082.3538     -5453.066      -302.33462      1673.0468      6144.9042
    477000   1.0172951      0.98824876     7.4995773     -2611.9993     -4139.4678      1527.4686     -4139.4678     -5423.3919     -297.94833      1581.8724      5694.2427
    478000   0.97311274     0.98604948     7.365114      -2679.0622     -4140.191       1461.1288     -4140.191      -5425.0367     -298.71975      1583.5655      5478.2535
    479000   1.0280335      1.0028501      7.6573817     -2584.235      -4127.8273      1543.5924     -4127.8273     -5444.0233     -298.46647      1614.6624      5896.7851
    480000   1.0062775      0.98436782     7.4722084     -2624.8096     -4135.7352      1510.9257     -4135.7352     -5408.7063     -301.53504      1574.506       5651.1197
    481000   1.014996       1.0075544      7.4222065     -2642.7214     -4166.7379      1524.0165     -4166.7379     -5446.1316     -299.90723      1579.3009      5577.8277
    482000   0.98646998     0.99239484     7.4238969     -2665.7182     -4146.9029      1481.1847     -4146.9029     -5430.3829     -298.07095      1581.551       5556.7031
    483000   0.98238315     1.0206216      7.5576458     -2636.8301     -4111.8784      1475.0483     -4111.8784     -5417.127      -297.34287      1602.5915      5733.7263
    484000   0.99375167     1.0191547      7.3621082     -2701.7171     -4193.8353      1492.1181     -4193.8353     -5460.4926     -301.25006      1567.9074      5452.2694
    485000   0.99218476     1.0169162      7.3207817     -2655.863      -4145.6284      1489.7654     -4145.6284     -5414.695      -297.63326      1566.6998      5452.352
    486000   1.0231913      0.99771912     7.4513168     -2570.6059     -4106.9276      1536.3217     -4106.9276     -5376.2043     -302.22795      1571.5046      5682.1846
    487000   1.0059428      1.0110096      7.6067659     -2669.1652     -4179.5884      1510.4232     -4179.5884     -5496.0874     -299.98636      1616.4854      5755.7947
    488000   1.0222531      1.023181       7.4242892     -2594.3116     -4129.2246      1534.913      -4129.2246     -5409.2001     -301.56681      1581.5423      5628.5441
    489000   1.0219958      0.98182143     7.0785125     -2685.1794     -4219.7062      1534.5268     -4219.7062     -5444.8258     -291.12149      1516.2411      5154.7075
    490000   1.0306015      1.0203996      7.6581453     -2567.4048     -4114.8529      1547.4481     -4114.8529     -5437.4121     -298.39138      1620.9505      5914.4609
    491000   0.98679921     1.0138543      7.4296401     -2660.7654     -4142.4444      1481.679      -4142.4444     -5407.7741     -303.09715      1568.4268      5568.0168
    492000   1.0016118      0.97954865     7.4353995     -2608.5186     -4112.4387      1503.9201     -4112.4387     -5390.4365     -295.64533      1573.6431      5626.6425
    493000   0.96552141     0.9954594      7.3448206     -2715.2568     -4164.9872      1449.7304     -4164.9872     -5440.098      -301.4246       1576.5353      5419.5827
    494000   0.96234449     0.97344081     7.0383477     -2751.0682     -4196.0285      1444.9603     -4196.0285     -5400.9401     -299.37448      1504.2862      5044.3337
    495000   1.0448002      1.0006084      7.3529131     -2521.3405     -4090.1081      1568.7675     -4090.1081     -5344.4855     -301.23465      1555.612       5622.4619
    496000   0.94213456     1.0047932      7.1542192     -2740.3014     -4154.9164      1414.615      -4154.9164     -5385.9418     -305.11494      1536.1403      5183.4353
    497000   1.0445707      1.0318827      7.3465342     -2561.5757     -4129.9985      1568.4229     -4129.9985     -5388.203      -300.4673       1558.6718      5575.1617
    498000   1.0129792      0.99885129     7.4633959     -2611.593      -4132.5814      1520.9883     -4132.5814     -5412.2539     -301.25215      1580.9247      5654.5758
    499000   1.0369975      1.0096639      7.4059725     -2623.3658     -4180.4175      1557.0517     -4180.4175     -5455.896      -298.41158      1573.8901      5579.2031
    500000   1.0368153      1.0105932      7.6036089     -2619.0214     -4175.7996      1556.7782     -4175.7996     -5483.9107     -299.03769      1607.1488      5802.4419
colvars: Saving collective variables state to "prod.colvars.state".
Loop time of 6125.52 on 1 procs for 500000 steps with 1002 atoms

Performance: 35262.290 tau/day, 81.626 timesteps/s
100.0% CPU use with 1 MPI tasks x 1 OpenMP threads

MPI task timing breakdown:
Section |  min time  |  avg time  |  max time  |%varavg| %total
---------------------------------------------------------------
Pair    | 38.712     | 38.712     | 38.712     |   0.0 |  0.63
Kspace  | 5948.4     | 5948.4     | 5948.4     |   0.0 | 97.11
Neigh   | 0.073269   | 0.073269   | 0.073269   |   0.0 |  0.00
Comm    | 80.124     | 80.124     | 80.124     |   0.0 |  1.31
Output  | 0.071676   | 0.071676   | 0.071676   |   0.0 |  0.00
Modify  | 51.618     | 51.618     | 51.618     |   0.0 |  0.84
Other   |            | 6.552      |            |       |  0.11

Nlocal:           1002 ave        1002 max        1002 min
Histogram: 1 0 0 0 0 0 0 0 0 0
Nghost:           7660 ave        7660 max        7660 min
Histogram: 1 0 0 0 0 0 0 0 0 0
Neighs:              0 ave           0 max           0 min
Histogram: 1 0 0 0 0 0 0 0 0 0

Total # of neighbors = 0
Ave neighs/atom = 0
Neighbor list builds = 47055
Dangerous builds = 0

undump         1
unfix          1
unfix          2
unfix          3
Total wall time: 3:45:31
