ITEM: TIMESTEP
0
ITEM: NUMBER OF ATOMS
1002
ITEM: BOX BOUNDS pp pp pp
0.0000000000000000e+00 1.0346399999999999e+01
0.0000000000000000e+00 1.0346399999999999e+01
0.0000000000000000e+00 1.0346399999999999e+01
ITEM: ATOMS id type x y z q mux muy muz
904 1 3.44954 4.07687 3.38752 0 -0.206187 -1.68608 0.418363
99 1 1.67993 1.34759 4.16161 0 -0.571309 -1.63864 0.221056
103 1 2.86983 3.33601 0.390739 0 -0.71178 0.189173 1.58682
884 1 1.10353 2.77553 2.64561 0 0.329976 -1.64918 0.481364
433 1 3.45469 1.54369 4.13854 0 -1.29453 -0.896708 -0.761909
197 1 3.77589 1.81072 2.11271 0 0.872998 -1.38178 0.623658
89 1 5.01563 3.975 2.35072 0 -1.35471 -1.06068 0.316409
346 1 4.88865 1.80978 2.35533 0 0.788898 1.48603 -0.479317
127 1 3.60695 1.28823 3.10168 0 -1.1596 -1.30902 0.046782
970 1 0.241504 1.12167 2.50586 0 -0.587149 -1.63815 -0.179232
767 1 2.22183 2.39662 3.91581 0 0.0824785 -1.72965 -0.248799
548 1 0.96153 0.70253 1.28295 0 -0.876332 0.238575 1.49517
936 1 2.51901 1.24458 3.31486 0 -1.38004 -0.968381 0.467053
810 1 3.08222 2.33475 3.25133 0 1.72049 0.280853 0.146465
697 1 2.91703 0.824096 2.54933 0 -0.999775 0.214619 -1.41943
528 1 2.30678 2.43354 5.34596 0 -0.997362 1.41746 0.237626
693 1 4.22545 0.859989 2.43722 0 0.573485 -0.503799 1.57407
442 1 4.0241 2.74365 1.75754 0 0.28246 -1.43498 -0.959916
939 1 1.765 2.03151 3.03752 0 0.172139 -0.173372 -1.73226
903 1 1.90992 4.90353 3.04521 0 0.232291 -0.506413 -1.65831
271 1 4.02842 4.10768 4.35975 0 0.108767 -1.50666 0.882349
909 1 1.08311 1.73661 2.32695 0 -1.38851 -0.147316 -1.05392
338 1 1.47499 2.4282 4.74936 0 0.546455 -1.45893 0.7958
129 1 0.718781 1.72857 3.2792 0 -0.0546332 0.409218 -1.69999
491 1 2.26313 3.2035 4.60216 0 -1.34425 -0.806902 0.776089
844 1 1.1944 2.70644 3.74614 0 0.658717 -1.39442 0.825891
703 1 2.88945 2.0917 0.682962 0 -0.150283 -0.842343 1.52587
862 1 1.37624 3.611 4.13674 0 -1.07175 -1.34348 -0.326827
676 1 4.98957 2.37847 1.38861 0 0.149105 -0.462455 -1.68057
153 1 2.98927 3.28119 3.86376 0 -1.68632 -0.311874 -0.345607
249 1 4.56619 1.12002 1.51528 0 0.678423 -0.744382 1.4304
978 1 1.71884 3.45508 2.10555 0 -0.340029 -1.71525 -0.0520829
833 1 2.50074 1.58637 4.59017 0 -1.63633 0.0933411 0.611655
889 1 1.00862 0.599329 4.22882 0 -0.184317 -1.34418 1.10436
53 1 1.71206 1.53199 5.24304 0 -0.182673 -0.977253 1.43945
592 1 3.61831 3.76654 2.07925 0 0.119942 0.130079 -1.74043
739 1 2.02492 2.4762 2.19028 0 1.32932 -0.862408 -0.741329
349 1 4.67403 0.0382271 1.56615 0 0.321039 -0.647288 1.59322
519 1 5.24883 0.652449 3.15814 0 0.882205 1.32809 -0.719915
848 1 3.91188 2.95369 3.74473 0 -1.64759 0.178078 0.560473
222 1 5.11908 2.04547 3.26693 0 -0.471027 -1.6843 -0.0409565
251 1 3.72431 3.49472 1.18042 0 0.265528 -1.08352 -1.34755
974 1 3.57817 3.05172 2.7189 0 0.390666 0.683394 -1.56229
551 1 0.221586 2.14739 2.42868 0 -1.63724 -0.554828 0.268353
240 1 4.12384 2.09881 2.99266 0 -0.167755 -1.72655 -0.226478
624 1 4.82569 3.91597 3.75562 0 -1.39871 -0.921749 -0.504363
633 1 2.18368 2.95655 1.11218 0 -1.5395 -0.740211 -0.377386
190 1 4.67777 3.00561 2.89911 0 -1.74606 -0.101602 0.0369799
976 1 0.560387 2.02989 4.34292 0 -0.770088 -0.48212 -1.49497
751 1 2.40028 4.46888 3.81379 0 -1.54074 0.328326 -0.760728
948 1 4.50704 3.5934 0.478759 0 -0.226543 0.50758 -1.65875
781 1 2.69865 1.7814 2.45848 0 1.21858 0.0431444 1.25444
485 1 1.87917 5.22767 0.861502 0 -1.11686 0.269205 -1.3193
754 1 1.53576 1.00839 3.13174 0 -1.47965 -0.658885 0.660979
476 1 4.52218 1.28977 3.55085 0 -1.24337 -1.13181 -0.483149
570 1 2.7393 4.82606 1.47749 0 0.641939 0.182347 1.61712
557 1 0.688762 3.18924 1.86578 0 -1.3219 -0.604474 0.973436
843 1 1.01039 2.72373 1.06434 0 -1.59405 0.354506 -0.627472
886 1 2.58439 3.91773 2.68799 0 0.00731819 -1.63492 -0.622402
649 1 2.09326 4.08181 5.37313 0 1.02452 1.32455 0.506275
914 1 1.66411 3.05917 5.44081 0 -1.21635 1.25673 -0.0391209
568 1 4.64757 3.5174 1.50659 0 -0.442666 -0.137634 -1.68686
804 1 4.94945 5.06889 4.59294 0 -0.403595 1.39318 0.978039
956 1 1.99736 0.574887 4.85152 0 1.37104 -0.187451 1.07028
512 1 4.27062 3.96094 2.95952 0 -1.27165 -0.349022 -1.14956
761 1 3.45246 1.84689 5.13372 0 0.350655 -1.69071 -0.280965
21 1 0.18258 4.93453 1.58121 0 0.782119 -1.15183 1.05924
388 1 1.98582 0.772782 1.08205 0 -0.49971 1.24576 1.12195
856 1 1.3613 4.67024 4.19005 0 -0.362435 -1.45105 0.907471
269 1 1.49131 1.64639 1.20409 0 -1.40755 1.03786 0.0453524
57 1 1.65758 4.18181 1.30679 0 1.03584 -0.774083 -1.17823
538 1 3.01523 2.6046 1.85387 0 1.55433 -0.774406 -0.211574
399 1 0.73719 3.45947 5.25384 0 -0.550769 1.14625 1.20132
608 1 4.56529 1.43049 0.601134 0 0.937538 -1.23927 0.803515
337 1 2.1375 3.1155 3.04451 0 -0.212235 -1.68473 0.420745
410 1 0.53634 4.62738 2.81737 0 1.10419 -0.921886 -0.995634
391 1 0.948619 4.16122 2.05645 0 0.538906 -1.31688 -1.01775
299 1 1.33607 3.83518 3.12869 0 0.662649 -1.50373 -0.600085
3 1 0.380387 3.26428 4.28053 0 0.990929 -1.27263 0.677403
861 1 0.311347 0.749758 3.48083 0 1.22241 0.925266 0.842615
669 1 2.6489 3.63173 1.65125 0 -0.411613 -1.25779 -1.14409
960 1 3.01748 0.429157 4.89917 0 1.04333 -1.39438 -0.166068
818 1 5.11903 3.40841 4.69477 0 0.627747 -1.03089 -1.26634
290 1 3.93357 4.94402 2.61847 0 -0.243656 1.4281 0.980593
865 1 2.52484 4.12598 0.78247 0 -0.515968 1.64644 0.288795
631 1 3.48681 0.314721 1.12283 0 0.182999 0.0348551 1.73945
421 1 1.931 4.452 2.19596 0 0.352638 -1.33759 -1.07093
417 1 2.92085 3.97979 4.62521 0 -1.49231 -0.275157 -0.870453
522 1 5.045 0.581519 4.18342 0 -0.0588866 0.61121 -1.6381
744 1 0.42686 1.69344 1.43246 0 -1.01816 0.822772 -1.16051
413 1 4.82512 0.399599 5.07205 0 0.638231 -0.460334 -1.56242
627 1 2.64426 1.45378 1.50887 0 -1.56515 -0.588219 0.514504
598 1 3.79649 1.83424 1.16228 0 0.449931 -1.43124 0.899736
644 1 3.26034 4.95325 4.5446 0 -0.441766 -1.57791 -0.612739
798 1 0.366908 3.47608 2.75459 0 0.776721 -0.82768 1.33118
998 1 4.85829 2.57031 4.17267 0 -0.334832 -0.0493953 -1.71635
390 1 2.05813 0.372668 3.80451 0 -0.839271 -1.33363 0.759906
362 1 2.88173 5.1458 0.56847 0 -1.24109 0.846401 0.896488
161 1 4.46065 4.48873 0.870093 0 -1.54808 0.574232 0.578006
113 1 3.23494 0.571795 3.76306 0 0.279347 -1.69764 0.316821
429 1 1.70419 4.30646 0.260638 0 -0.577601 -0.61313 -1.53325
506 1 4.03422 5.24796 1.57616 0 0.170236 -0.572694 1.64421
912 1 1.2512 4.98594 1.5694 0 0.0147867 -0.203605 -1.73745
128 1 5.30184 5.10214 0.662723 0 -0.37728 0.675857 1.56885
929 1 3.30623 2.47611 4.38818 0 -0.380596 -1.37179 1.01673
80 1 4.56146 4.42115 5.16196 0 0.368077 -0.285768 -1.6862
873 1 3.7938 2.65961 0.558501 0 -0.142436 -1.6318 -0.614288
753 1 4.41711 1.68697 4.57403 0 -0.448913 -1.37241 -0.987601
64 1 1.27727 3.41825 0.259848 0 -1.54727 0.81594 0.0245287
55 1 2.99453 1.00358 0.62888 0 -0.588148 -1.29184 1.02256
463 1 0.3404 4.93781 0.128006 0 -0.625232 0.871663 -1.38192
493 1 0.405339 1.34682 5.1663 0 -1.04755 -0.497574 -1.30976
708 1 5.30766 1.66754 4.88237 0 -1.49582 0.661056 0.621233
73 1 4.87589 4.83325 3.16145 0 -1.55349 -0.781343 -0.191266
33 1 0.00177405 4.02902 3.65366 0 0.463714 -1.55195 0.660926
613 1 0.299598 4.53008 4.86318 0 -0.0385658 -1.62636 -0.643328
673 1 0.146745 2.50072 5.22399 0 0.297709 -0.768418 -1.54315
273 1 4.1278 0.379299 3.27952 0 -0.165306 -1.74146 0.0196644
812 1 0.992766 0.319696 2.33746 0 1.22287 -0.216276 1.23216
314 1 3.87345 5.04162 3.76245 0 0.281545 -1.58271 0.690051
938 1 4.902 5.11407 2.14428 0 1.41706 -0.020289 1.02563
784 1 1.8291 1.03559 2.09149 0 -1.36213 -0.270434 1.0639
162 1 0.938809 0.211296 5.1318 0 -0.288052 -0.941614 1.44596
223 1 4.04908 0.693592 4.3499 0 -1.67459 -0.466678 0.195898
211 1 1.07281 0.0491266 3.44268 0 0.855238 -1.28919 0.816667
766 1 2.06567 5.43312 1.94398 0 -1.5673 -0.776246 0.0377619
327 1 2.58891 0.211893 1.6495 0 -0.19034 -0.447999 -1.68032
824 1 2.93359 4.83313 2.88739 0 0.277346 -1.51273 0.833735
112 1 1.16645 5.45368 2.48677 0 -0.460938 -0.33784 -1.65342
923 1 0.242314 0.581712 0.495872 0 -1.27731 -0.80906 0.879937
612 1 0.744805 4.1279 0.809667 0 -0.712141 1.2032 1.05146
262 1 0.486537 5.41725 3.49095 0 0.399458 -1.59065 -0.608811
981 1 0.905308 5.34368 0.758888 0 -1.40003 -0.0933141 -1.0448
264 1 0.462578 5.41495 5.33306 0 0.50784 -1.00755 -1.33692
639 1 3.84603 0.979673 5.32992 0 0.611965 -1.58812 -0.404681
177 1 3.49833 4.36731 0.749337 0 -1.31994 -0.130187 1.14071
334 1 2.56362 5.03353 5.35686 0 0.411718 1.7002 0.0139059
167 1 3.76663 3.49126 5.04614 0 -0.245499 -0.964973 1.43839
458 1 4.21148 2.64628 4.9984 0 -0.177979 -1.26932 -1.19061
517 1 1.62109 2.37719 0.0199294 0 -1.57976 0.656465 0.365813
245 1 1.15916 0.769178 0.12201 0 -1.67744 0.0215955 -0.49611
237 1 0.73121 1.67995 0.509177 0 0.00100197 -0.646977 -1.62537
489 1 5.08723 2.59542 0.341829 0 1.53992 -0.0712816 -0.82703
225 1 4.4101 0.416385 0.652886 0 -0.447861 -1.45222 0.866539
147 1 2.15219 0.788896 0.124309 0 -1.63857 -0.465041 0.399012
76 1 0.0703113 3.38822 0.368943 0 1.61612 -0.434135 -0.509979
492 1 4.00497 5.33396 5.42733 0 1.17776 -1.15098 -0.590367
354 1 5.609 4.37355 5.13718 0 0.979217 -0.703323 -1.26762
500 1 5.47385 2.84376 5.45667 0 -1.21408 0.225026 1.23926
636 1 6.11892 3.81785 4.55275 0 0.779367 -0.217406 -1.55104
412 1 5.56275 4.56916 3.95303 0 -1.26789 -0.947018 -0.745664
121 1 10.0457 3.88724 1.38395 0 1.07851 -1.07963 -0.855342
651 1 6.38871 1.06996 0.624133 0 -1.34907 -0.98125 -0.526851
894 1 5.62265 2.52104 2.18734 0 -0.531863 -0.13624 -1.66101
635 1 10.2605 0.350946 1.52354 0 -1.56869 0.341164 0.695132
84 1 5.6058 0.883776 2.04123 0 1.2098 -0.869651 0.916787
684 1 5.71868 1.37042 3.71909 0 1.44183 0.990602 -0.0149729
170 1 10.1625 2.61858 3.18968 0 -1.59628 -0.386661 -0.602321
2 1 7.20766 0.543315 0.416112 0 0.204939 0.707115 -1.58694
638 1 6.30269 4.33087 0.781205 0 1.64129 0.547348 0.258802
604 1 9.58556 0.817527 2.36659 0 -1.61106 -0.243963 -0.636677
717 1 10.0152 4.85831 3.23585 0 0.194898 -1.41132 -1.01518
664 1 9.5745 0.589781 0.00866751 0 -0.548166 -1.53754 -0.6292
12 1 5.99051 3.35343 2.57425 0 -1.07892 -0.812416 -1.1119
252 1 6.26364 3.76164 3.48608 0 -0.832476 -1.25902 -0.884455
185 1 9.78528 5.25708 0.90286 0 -0.326474 -1.71534 -0.106815
991 1 6.56694 1.43311 4.23957 0 0.799252 -0.50316 1.47256
962 1 6.7474 2.21733 3.6446 0 -1.06236 -0.971474 -0.993999
209 1 6.42634 4.72125 4.37005 0 -0.56775 1.11668 -1.2211
186 1 7.57942 1.5384 1.65845 0 1.04983 1.29917 0.520008
212 1 6.20314 0.995007 2.84404 0 1.58819 0.720267 0.138758
255 1 10.3158 2.89488 1.24149 0 -1.36999 -1.06084 -0.241129
370 1 9.71635 1.70069 1.77289 0 -1.54795 0.615152 -0.534628
193 1 6.64511 3.02486 4.17177 0 -1.50718 -0.768137 -0.445843
685 1 7.98061 1.48172 5.03316 0 -1.52444 0.15586 -0.843911
437 1 9.35049 4.1661 3.73601 0 0.216106 -0.0293354 1.73575
830 1 8.89634 0.825511 4.40933 0 -0.675049 0.516839 -1.52892
696 1 6.71949 3.25484 1.03587 0 -1.23213 0.249528 1.21654
787 1 8.97307 2.04164 1.03251 0 -0.449862 0.471587 -1.62346
277 1 5.70795 1.70309 1.51507 0 -0.0845211 -1.71497 -0.33486
718 1 6.63954 1.47048 2.05153 0 0.850841 1.52375 0.121011
490 1 6.82742 3.05586 2.08404 0 0.707594 0.729043 1.42415
205 1 8.08967 3.92217 3.53516 0 -1.69722 0.145379 -0.398377
218 1 9.07781 2.47653 4.09479 0 -0.823301 0.0905352 -1.5409
518 1 9.72518 3.26915 4.07102 0 -0.629366 -1.63145 0.0516745
617 1 6.09398 2.04087 2.93383 0 -1.07158 0.801122 -1.12708
133 1 7.33174 1.62819 0.688379 0 -0.778855 -0.99348 1.21111
436 1 8.58109 3.59738 2.3963 0 0.481137 1.3123 -1.05203
471 1 7.72867 3.0321 0.764829 0 -1.15839 -0.767216 -1.06298
838 1 7.84917 2.89336 2.63944 0 -0.54549 1.62908 -0.33004
523 1 8.06801 2.32188 4.3346 0 -0.212185 1.06543 1.37122
276 1 9.34104 2.8883 1.61829 0 -1.3875 -0.488576 0.946863
648 1 8.23737 2.02701 2.27309 0 0.903469 0.367111 1.45237
326 1 9.85913 1.70839 4.3939 0 -1.68015 -0.394419 0.286227
908 1 8.74895 3.57941 4.32057 0 -1.40618 0.477026 -0.924941
660 1 5.93662 2.71551 1.00282 0 -0.359338 -1.01953 -1.37544
980 1 8.71841 3.00417 3.36717 0 -0.69987 0.755119 -1.41435
547 1 9.12179 4.47969 2.88309 0 -0.000732615 -0.911875 1.49294
136 1 9.34615 0.670919 1.12013 0 -1.28695 -1.17796 0.128723
124 1 7.74548 0.453512 3.12093 0 0.0654165 -0.973405 -1.4521
4 1 7.77548 2.02957 3.37467 0 -0.524493 1.53477 0.655584
176 1 8.88663 1.83999 3.41864 0 -0.964648 -1.04029 -1.02355
119 1 5.83031 3.57171 1.54884 0 -0.82647 -0.780524 -1.32971
416 1 7.64792 4.4738 2.8794 0 0.146393 1.74134 0.0818249
734 1 8.81303 1.26675 1.86179 0 -1.12933 -0.658755 -1.16235
157 1 7.13971 1.03658 5.09857 0 -1.6173 -0.658836 0.103352
308 1 8.47364 4.59349 4.42655 0 -1.69084 0.445296 -0.0563837
132 1 7.63611 4.77097 4.00936 0 -1.62135 0.501068 -0.424925
583 1 5.48457 4.5788 1.51022 0 -0.655142 -1.62206 -0.0102723
705 1 9.45526 4.82154 1.91646 0 0.754252 -1.57091 0.154083
96 1 9.78812 1.72284 2.9372 0 -0.188194 -1.65189 0.54427
584 1 7.66595 3.58865 1.88304 0 0.98638 1.35303 -0.506711
392 1 8.26051 2.79694 1.6179 0 -0.786404 -0.950179 1.24062
187 1 9.63317 3.4436 3.07285 0 -0.365395 1.70632 0.123864
723 1 9.58647 1.05759 3.67042 0 0.181228 -1.73978 0.0268588
849 1 7.16545 3.978 4.70216 0 -0.217266 1.68702 -0.408833
796 1 7.6587 3.14291 3.78103 0 0.101699 -0.577773 1.6481
946 1 7.14069 4.29162 1.23556 0 1.57559 -0.759445 -0.034082
28 1 5.78291 4.54007 2.67443 0 -1.73732 -0.058722 0.196662
101 1 7.0674 2.20923 2.6338 0 0.763038 0.616099 1.44865
440 1 7.14712 1.35375 3.14385 0 1.24604 0.846446 -0.889553
615 1 5.8083 2.57144 4.37351 0 -1.74731 0.0837696 -0.0168744
811 1 6.87023 4.53902 3.45796 0 -1.65302 -0.466005 -0.332807
247 1 8.71036 3.354 0.9016 0 -1.49367 -0.84743 0.333475
702 1 7.37569 0.516944 1.4038 0 -1.11821 1.16696 -0.669496
8 1 6.12 5.34156 1.38017 0 -1.35067 -1.10607 0.112698
715 1 8.50924 1.15608 2.93639 0 0.0739286 -1.72859 -0.258667
632 1 5.73711 1.89336 0.384255 0 -0.468816 -1.27795 -1.09884
329 1 7.17739 3.58343 2.91232 0 0.144686 1.58291 0.730654
256 1 9.21013 2.52606 2.56697 0 0.888575 -0.456423 1.43615
200 1 6.95495 2.39011 0.260032 0 0.909157 0.0844329 1.49221
148 1 5.61953 2.99467 3.44792 0 -0.250803 -0.821606 -1.52396
874 1 6.50636 2.81878 5.17138 0 -0.64586 1.6234 -0.0884667
794 1 5.96131 0.0562586 0.364362 0 0.0842933 -0.596243 -1.64249
611 1 6.66181 4.12596 2.2517 0 -1.65359 0.150284 -0.550862
356 1 8.4768 5.18688 3.4554 0 0.115591 -1.06974 1.37938
534 1 7.58361 4.9571 4.93166 0 -1.61256 -0.335659 0.589386
704 1 7.0098 2.28394 1.43345 0 -0.920841 1.30863 0.707059
172 1 8.40969 3.81355 5.2304 0 0.663759 -0.947133 -1.31254
344 1 10.1505 4.1835 2.34635 0 0.667459 -1.61571 -0.0661236
967 1 6.66915 0.12476 4.74242 0 -0.277531 1.43455 0.962002
398 1 7.5961 3.07382 4.81365 0 -0.830728 1.21145 0.950093
641 1 7.98987 5.3383 2.37963 0 -1.66459 0.382543 -0.378403
480 1 8.97014 4.60485 0.887781 0 -0.32026 -0.551996 -1.62884
395 1 7.9752 0.635636 2.14849 0 -0.438084 -0.133728 -1.68837
355 1 8.60046 0.0478408 3.90653 0 -1.61019 -0.680419 0.0687406
898 1 8.05168 5.08284 0.957297 0 -1.63147 -0.188368 0.602682
155 1 9.10995 3.93495 1.62136 0 1.12875 0.223729 -1.31768
735 1 7.16295 2.08221 4.7263 0 -1.5095 0.883418 -0.0373815
324 1 9.16624 4.99409 5.13082 0 0.84044 -1.49623 0.339647
306 1 9.98739 4.33791 0.451769 0 0.0469014 -1.19159 -1.27997
790 1 7.28655 0.661411 3.97799 0 0.209607 -0.280753 -1.71396
877 1 8.29706 4.46084 1.90213 0 1.50093 0.898249 0.0276919
68 1 10.0684 5.25235 4.41815 0 1.10066 -0.548976 1.24401
494 1 7.94351 4.07425 0.779629 0 0.878857 -0.68253 -1.34988
254 1 5.91725 0.000237255 2.38016 0 0.0385723 -1.74665 0.0901876
595 1 6.88193 0.217893 2.24801 0 -0.976469 -0.122851 -1.44631
808 1 8.35854 0.514882 1.11577 0 -1.60596 -0.419536 -0.552516
926 1 5.48588 3.67344 0.606393 0 0.884706 -0.661445 -1.35653
536 1 8.9696 1.85193 4.98869 0 -1.63835 0.220576 0.572332
732 1 8.718 2.30773 0.16821 0 -0.897899 0.4327 -1.43769
549 1 6.39444 1.84262 5.40495 0 0.142216 1.43406 -0.991793
887 1 9.7842 3.90885 4.74486 0 -0.257882 -1.61432 -0.622782
232 1 9.36251 2.99013 4.95 0 -1.60087 -0.687238 -0.159101
52 1 8.80703 0.504862 5.31612 0 -0.453943 0.707869 -1.53403
559 1 6.645 0.0931385 3.38462 0 -0.705757 0.674064 -1.45188
778 1 9.7414 0.00678244 3.89688 0 0.385533 -0.88974 -1.45607
260 1 6.34676 0.277262 1.43542 0 -0.622807 -0.876056 -1.38023
43 1 8.02192 1.30143 3.98369 0 -0.975025 0.314726 -1.41798
397 1 10.2332 0.728225 4.4906 0 -1.0684 -0.776229 -1.14734
891 1 8.96592 0.243389 2.93165 0 0.292178 -1.2597 1.17821
869 1 6.91208 5.18882 2.14378 0 -1.13402 0.3658 -1.28085
72 1 7.05914 5.30315 0.852529 0 -0.967964 -1.15405 -0.88973
587 1 9.90693 1.33919 0.789306 0 -0.67727 -1.34867 0.884761
560 1 8.9943 1.34382 0.274932 0 1.6505 -0.576431 0.0631339
275 1 6.28108 5.14314 5.31235 0 0.225476 -1.67733 0.442871
501 1 6.0008 0.917047 4.87137 0 -1.58236 0.742834 0.0688871
556 1 9.43001 3.25954 0.222357 0 0.865567 -0.982549 1.16008
29 1 8.40554 2.74014 5.31788 0 -0.776371 -0.150845 1.56041
679 1 8.05001 0.980141 0.326989 0 0.467649 1.63062 -0.427536
479 1 10.1609 2.30157 0.39422 0 -0.292616 -1.71947 0.134947
294 1 8.71952 3.98822 0.0694059 0 0.543326 -1.65032 -0.204052
655 1 7.10299 4.66764 0.104603 0 1.30186 -0.85067 -0.801193
932 1 5.49805 0.765517 1.02992 0 -0.572446 -1.19997 -1.137
253 1 8.04547 0.085804 0.0480515 0 0.120968 1.20604 -1.26144
272 1 3.94372 9.48929 1.44667 0 0.576743 1.06214 1.26477
637 1 3.94817 9.87639 0.323449 0 0.990001 -0.185357 1.43036
975 1 2.13861 5.47737 4.02729 0 -0.331344 -1.69026 0.305998
474 1 3.05079 5.84444 3.33721 0 -0.128896 -1.66513 0.520707
780 1 4.48409 5.69348 0.715504 0 -1.58916 -0.196985 0.704387
77 1 0.550716 9.92706 0.996731 0 -0.0809383 1.3883 1.06136
822 1 0.38411 10.0449 4.36299 0 1.52139 0.517588 -0.691296
640 1 2.13627 6.11769 2.85648 0 0.959763 -1.31503 -0.640267
152 1 4.55108 9.91526 4.1558 0 -1.39412 1.05297 -0.0899058
863 1 4.17179 5.75046 4.51345 0 -0.537367 -1.40323 -0.895868
820 1 1.67297 5.48731 4.91312 0 0.0970861 0.620895 -1.63262
227 1 3.72232 6.16485 2.5799 0 -1.20768 0.0814329 -1.26304
126 1 0.190179 10.1603 3.02438 0 1.0362 1.19311 -0.750446
20 1 1.49341 6.53318 4.56527 0 -0.26595 0.17294 -1.7204
713 1 0.87541 5.67371 4.36653 0 -0.291978 0.175136 -1.71595
165 1 4.34812 5.91476 3.50316 0 -1.70213 -0.249694 0.317486
645 1 2.53377 9.70998 2.30362 0 0.369254 1.70666 0.106549
488 1 4.27115 9.04402 2.44067 0 -0.773205 -0.972625 1.23148
609 1 3.5156 10.1897 2.07265 0 -0.0501333 0.680091 1.61101
1001 2 3.53431 10.0422 4.25043 -13.626 0 0 0
374 1 3.47926 7.68581 3.91076 0 1.56904 -0.733954 0.244607
510 1 2.7944 5.83527 4.83212 0 0.871239 1.09094 -1.05413
192 1 2.96771 5.57322 2.14626 0 -1.67819 -0.202942 -0.450446
740 1 2.60313 9.60332 3.4629 0 -0.51172 -0.333837 1.63924
880 1 1.84822 8.82099 4.21479 0 -1.08673 -1.30438 -0.421907
163 1 5.16099 5.81701 1.48052 0 -1.53745 -0.0985125 0.828816
394 1 3.45946 6.88956 3.32151 0 -1.27441 -0.501683 -1.08839
422 1 4.36075 7.28807 3.47717 0 -0.780286 -1.11398 -1.10028
943 1 5.16952 7.20524 2.59906 0 1.1574 0.899854 0.954513
875 1 2.03107 8.59566 3.16041 0 0.874925 -1.38916 -0.604273
968 1 0.538779 9.08851 1.70571 0 -0.445348 -1.05837 -1.31981
840 1 1.53034 10.2632 0.659415 0 -0.220397 1.4513 0.951606
424 1 3.59702 9.96013 3.10981 0 -0.846969 -0.821129 1.29182
439 1 4.26276 7.97769 2.58388 0 -0.908451 -1.22218 -0.861038
45 1 0.495803 6.97238 3.6209 0 -1.03962 -0.495615 1.3168
733 1 3.89187 8.19762 4.78059 0 0.19685 1.55577 0.775381
160 1 1.5227 9.51397 3.4841 0 -0.164757 -1.73744 -0.12071
220 1 0.906842 6.51349 5.46053 0 0.114939 -0.824038 -1.53888
279 1 3.64502 6.28981 1.49743 0 -1.50433 -0.756616 -0.474278
700 1 3.09828 9.03535 4.1722 0 0.859789 1.218 -0.915232
472 1 4.73727 8.22719 4.0086 0 -0.68463 1.52034 -0.529378
569 1 3.27455 8.00403 2.9351 0 -0.243365 0.107337 1.72906
870 1 4.214 9.03413 4.45901 0 0.834713 1.39678 -0.642386
619 1 4.58925 9.38012 3.33329 0 0.273635 -0.243963 1.71056
26 1 3.57949 6.39839 5.24421 0 0.015827 -0.77829 1.56666
834 1 3.46111 9.39371 5.41593 0 0.0192878 0.519808 -1.67028
577 1 1.04437 9.58617 2.37138 0 -0.0461217 -1.72649 -0.278421
387 1 4.60448 7.60481 0.327817 0 0.587424 -1.43932 0.802296
993 1 2.77001 6.81617 2.47903 0 -1.31585 0.0791533 -1.15008
931 1 2.9808 8.90475 1.6664 0 0.955815 -1.45983 -0.125337
164 1 3.84838 8.64862 3.56425 0 -1.16287 0.384553 -1.2491
301 1 0.338178 9.50886 0.143687 0 0.546859 1.57716 0.523363
706 1 2.73839 8.07384 4.45078 0 1.24179 0.926555 -0.812307
724 1 0.997651 8.46604 3.73342 0 -0.645415 0.0166082 -1.6259
315 1 2.49101 8.27563 2.38438 0 -0.132185 -1.74309 -0.0676758
893 1 3.23548 8.99857 2.87664 0 -1.39824 -0.0726041 -1.04884
678 1 1.43482 10.0507 4.37535 0 0.871962 -1.27025 0.828584
42 1 5.0509 8.5514 2.90099 0 -1.53183 0.74541 -0.397815
917 1 3.32875 7.00619 0.740679 0 0.925088 -0.658329 1.33087
742 1 3.83551 8.47857 1.77019 0 -0.197767 -1.25971 -1.19767
426 1 4.94056 6.53706 4.09606 0 0.599085 -1.12856 -1.19493
654 1 2.73042 6.04766 1.31902 0 -1.25503 -0.610428 -1.05484
659 1 2.37204 7.94518 0.87893 0 0.720576 1.32064 -0.892793
588 1 1.09624 8.6173 2.74976 0 -0.137307 -0.793526 -1.55302
575 1 1.78369 9.036 2.15752 0 1.50378 -0.893038 0.0392279
564 1 0.0499751 8.02438 3.45278 0 -1.11945 -1.33779 -0.132491
589 1 1.92942 10.2811 2.84267 0 0.869787 -1.36325 -0.667389
115 1 3.18606 6.36359 4.17883 0 1.55228 0.718977 -0.365938
140 1 2.27766 6.64367 3.74671 0 0.78882 -0.666964 -1.41185
585 1 4.0308 6.90911 4.32801 0 1.67588 0.339512 0.369543
672 1 3.36653 7.34652 5.20134 0 -0.151751 -0.134427 -1.73761
248 1 1.70469 10.0667 1.77162 0 -1.22767 -1.24628 -0.00362803
304 1 1.42191 6.80276 3.04159 0 -1.33869 -0.938809 0.622056
246 1 1.517 7.3662 1.65834 0 -1.28779 0.745991 0.919511
138 1 4.022 7.07598 2.05428 0 0.30955 -0.453579 -1.66098
144 1 4.74747 6.27604 2.33361 0 -0.747766 1.34531 0.831501
900 1 4.89583 9.02298 1.65832 0 -0.30187 -0.829314 1.51047
448 1 0.562929 5.92829 1.47728 0 -0.900501 -1.26335 -0.808361
166 1 0.537325 7.29423 0.0923634 0 0.17849 1.74027 0.00437836
404 1 4.85132 9.67255 0.583668 0 1.59297 -0.630486 0.354042
79 1 4.798 7.83997 1.6816 0 0.604345 1.64154 0.0223552
268 1 5.40769 7.67233 3.43376 0 -0.956353 0.838973 1.2008
963 1 4.53404 6.74472 1.23162 0 -0.362019 -1.61649 -0.562412
565 1 1.41839 8.14275 4.91344 0 -0.278958 -1.72645 -0.0442038
858 1 0.601829 6.25 2.83603 0 -0.955835 -1.34236 0.587243
97 1 2.43416 9.98844 4.42075 0 1.45936 0.486034 -0.833337
722 1 3.23345 7.66286 1.91042 0 0.142585 -1.72656 0.243016
499 1 2.36461 7.73973 3.59485 0 -1.24134 -0.580148 1.08761
937 1 1.61646 6.32451 1.39204 0 -1.39653 0.945387 -0.46512
777 1 1.81961 7.57269 2.58223 0 -0.253887 -1.72508 0.141564
366 1 0.10054 5.89866 0.318014 0 -1.66168 0.532747 -0.124157
508 1 0.677442 6.95094 1.12447 0 -0.831175 0.18453 1.52823
860 1 5.45933 9.00582 3.65702 0 1.32643 -1.12001 -0.215804
88 1 4.93278 8.49489 5.08917 0 1.533 -0.157214 -0.828005
381 1 3.8912 8.09789 0.876097 0 0.302963 -0.565079 -1.62767
527 1 4.74909 8.68629 0.623034 0 -1.22959 1.24021 0.101896
34 1 2.13917 6.29019 0.540784 0 -0.979112 1.42777 -0.25142
82 1 1.40332 5.95865 3.57497 0 1.45814 -0.379439 -0.888962
966 1 0.78916 8.14221 1.95809 0 -1.52875 -0.722043 0.449429
243 1 1.13329 9.05101 0.797865 0 1.2639 1.13762 -0.410829
81 1 2.99944 9.74717 1.24083 0 0.247452 -1.64532 0.540455
258 1 0.2681 8.41767 0.259376 0 1.57847 0.753737 -0.0266028
241 1 1.17592 8.03798 0.501559 0 1.16033 1.30865 -0.03827
300 1 2.09945 9.24624 1.20721 0 1.67794 -0.387106 0.308347
864 1 5.43352 9.28241 4.72006 0 1.19862 0.694079 -1.06862
503 1 5.37107 5.60379 3.66648 0 -1.6668 -0.51537 0.1287
553 1 5.42602 9.42299 2.49086 0 -0.0050094 0.555698 1.65879
203 1 4.47291 10.0354 2.53688 0 0.607801 -1.53089 0.58938
681 1 0.528703 9.30707 3.41114 0 -0.558638 0.605005 -1.54347
504 1 0.648663 7.0127 2.15835 0 0.000808713 -1.72748 0.276059
313 1 4.86372 7.40394 4.80134 0 1.3982 -1.02415 -0.237809
242 1 1.11179 6.42218 0.020404 0 -0.725222 1.32225 0.886627
195 1 5.23285 5.60334 5.37645 0 1.44149 -0.565209 0.814279
137 1 2.33868 10.0889 5.41203 0 0.0869183 -1.48563 -0.919642
883 1 0.898998 9.14699 4.4843 0 -1.40918 -1.03513 0.0558934
457 1 2.5688 8.88241 4.99219 0 0.454726 -0.543294 -1.59952
156 1 2.77736 10.2681 0.108009 0 -1.39996 0.673774 0.80407
881 1 4.61387 9.54882 5.34863 0 1.02446 -1.2465 0.676095
922 1 4.91566 6.62423 0.371846 0 0.77286 -1.46963 -0.550703
999 1 1.67902 7.14633 0.676659 0 -1.11966 1.33645 0.143711
405 1 2.46612 7.07047 1.52561 0 -1.1913 0.279936 -1.25014
935 1 1.57927 9.42729 5.22684 0 -1.36591 -0.353164 -1.03439
15 1 2.12183 8.50317 0.076303 0 -0.122039 -0.495889 -1.6732
919 1 2.98875 8.877 0.696755 0 0.533495 0.454521 -1.60287
764 1 1.60313 7.21773 5.33264 0 -1.15424 -1.17512 -0.589247
460 1 2.50915 6.95541 4.79614 0 0.845582 1.34343 -0.735246
879 1 1.33637 7.47613 4.11838 0 -1.49123 -0.886937 -0.223569
514 1 4.5988 6.47579 5.24477 0 0.275096 -1.17606 -1.26554
691 1 1.65245 9.57713 0.0555185 0 0.715145 1.53685 0.432513
940 1 3.44767 5.94681 0.525896 0 -0.487436 -0.875549 -1.43395
379 1 0.580485 7.30158 4.7295 0 -0.539949 -0.938239 1.37425
196 1 9.1041 9.53497 4.17409 0 0.935004 -0.292757 1.4493
169 1 6.89371 10.0453 0.85087 0 -0.00579481 0.0766204 -1.74771
183 1 7.45114 5.53373 3.23743 0 -1.4458 -0.74511 0.644109
738 1 8.52165 5.85043 1.73942 0 0.511048 -0.54019 1.58348
924 1 8.81535 5.65583 0.666687 0 -0.0779446 -0.722965 1.59111
537 1 9.81871 5.9211 1.63022 0 1.4256 -0.79355 -0.631153
994 1 8.97482 5.47761 2.4803 0 -0.883429 -1.47377 0.328568
396 1 6.01961 6.16825 5.41868 0 0.305013 -0.241551 -1.70558
143 1 5.99343 5.87657 4.41298 0 0.945871 -0.394718 -1.41772
259 1 8.42126 6.29159 3.83225 0 1.10248 -1.35184 0.132216
265 1 9.41238 5.5359 3.50323 0 1.12318 -1.18166 0.634456
107 1 6.45139 9.19643 1.4789 0 1.49541 0.803202 0.423102
845 1 5.76384 10.2313 4.16618 0 0.1726 0.727806 1.58143
423 1 5.60148 9.96513 1.45945 0 0.469091 -1.55384 0.652643
171 1 5.49232 6.75616 1.74739 0 -1.27685 1.13497 -0.376722
159 1 6.21646 7.36916 2.51107 0 1.22366 -0.479748 -1.15451
675 1 5.82518 7.00445 4.46856 0 0.876944 -0.974614 -1.15823
215 1 10.016 9.31807 0.991449 0 1.66369 0.540724 0.0117609
229 1 10.1388 9.77046 2.10246 0 0.96721 -1.30734 -0.644802
111 1 10.2608 7.73996 2.27335 0 -1.06001 -1.31204 -0.464025
580 1 10.0892 6.76537 2.64633 0 0.592327 -0.392834 1.59851
486 1 5.59243 6.54363 3.36444 0 1.42683 0.289882 -0.969812
431 1 10.3031 8.72458 2.66864 0 0.191199 -1.66046 0.516433
173 1 8.32412 8.45778 5.12189 0 -1.40574 0.950725 -0.424752
989 1 7.40078 9.7444 2.6228 0 0.469141 -0.535391 -1.59802
831 1 8.44992 9.62303 1.85412 0 -1.70579 -0.284711 -0.263835
892 1 7.39572 9.87635 1.6741 0 -0.644999 0.451019 -1.56236
297 1 8.08366 6.21848 2.79191 0 0.893222 -1.21759 0.883195
30 1 9.9428 10.2176 0.608739 0 -1.52642 -0.850513 0.0840351
6 1 7.98359 8.2322 0.660947 0 1.27885 -0.375319 1.13317
274 1 7.94467 9.87255 0.824708 0 -0.565993 1.08665 -1.24869
35 1 10.0896 8.96908 5.16656 0 -0.988751 -0.788106 -1.20899
910 1 5.73947 8.36146 1.97916 0 1.23585 0.783963 -0.958375
146 1 6.39668 6.11289 2.11571 0 -1.40334 0.546053 -0.89043
530 1 6.40839 9.54143 2.83073 0 0.892939 -1.0065 1.11804
321 1 5.63644 5.73978 2.68452 0 -1.43877 0.995119 0.00881419
825 1 10.215 6.21135 3.72305 0 -0.907263 -1.45091 0.363509
543 1 7.45998 9.90839 3.62694 0 -0.525108 -0.763628 -1.48376
342 1 7.91581 10.3463 4.67647 0 -1.17817 0.565934 -1.16277
692 1 10.072 7.90426 4.90183 0 -1.51736 -0.640272 0.589982
789 1 9.64313 9.45569 0.0287259 0 -0.39615 -0.776472 -1.51676
552 1 6.98725 6.4297 2.85649 0 0.457271 -0.897411 -1.43037
741 1 7.02903 6.19225 5.15653 0 0.903477 0.886377 1.20767
336 1 5.59127 9.98994 3.29491 0 -0.647789 1.03964 1.24897
420 1 6.34137 9.50131 3.93121 0 -0.169147 1.72745 0.218427
871 1 5.72768 10.218 5.17777 0 -0.537849 -1.23594 1.11516
109 1 9.30271 7.76184 1.89983 0 -0.205981 1.19263 -1.26318
473 1 7.44618 9.06402 1.08321 0 1.56069 0.277497 -0.740027
318 1 9.8417 7.26903 4.06694 0 0.403519 -0.785573 1.51012
234 1 6.51694 8.44507 0.598252 0 0.885757 -0.535343 1.4104
449 1 8.94634 8.72212 2.34592 0 0.11863 0.531251 1.66256
866 1 7.01209 8.51695 2.05954 0 -0.140662 -0.105179 -1.74056
769 1 9.2366 6.63628 3.34697 0 0.28834 -1.09629 -1.33244
558 1 8.49058 9.06593 0.522436 0 -0.569671 -0.224547 -1.63874
385 1 8.24975 8.20225 2.97293 0 0.646324 -1.61546 0.181564
350 1 10.0435 7.02664 1.57271 0 -0.481581 0.616005 1.56493
120 1 8.56915 8.62271 1.3662 0 1.22513 1.21794 0.275784
950 1 9.55635 9.79267 2.96749 0 1.52881 -0.464946 -0.712005
888 1 10.1287 5.78402 2.58367 0 -0.956394 -1.46273 -0.0782264
647 1 8.65473 7.26331 2.51458 0 -0.797807 0.27886 -1.53171
319 1 7.64439 7.06647 0.654968 0 1.20574 -1.02148 -0.750444
797 1 9.22933 6.4361 2.20429 0 0.732746 -0.650794 -1.44912
135 1 9.22995 10.2692 1.80132 0 -0.282587 -1.70485 0.272078
695 1 8.0556 6.74565 1.89014 0 -0.431322 -1.55639 0.672326
1000 1 5.95922 5.8852 0.498378 0 1.28429 -0.766945 0.907076
24 1 7.38614 7.83002 3.85048 0 -1.57171 0.673068 -0.37028
175 1 7.14042 7.90544 1.23928 0 1.61315 -0.558521 -0.382353
701 1 6.25978 7.18983 1.38043 0 1.2642 0.0882183 1.206
238 1 8.40504 9.67665 3.01074 0 0.329323 -0.412347 -1.66791
854 1 7.59321 7.29076 2.96844 0 -0.575313 -0.491175 1.57739
561 1 6.89574 6.25519 0.846255 0 0.984044 -1.42588 -0.242765
529 1 7.70794 8.97812 3.41313 0 1.01034 -1.34983 -0.466449
579 1 9.45006 8.23191 3.87933 0 -0.708657 -1.27729 -0.962676
509 1 6.93744 8.75739 3.96413 0 -0.68784 1.46908 -0.65505
322 1 6.00665 8.22911 2.93293 0 -1.40034 -0.40125 -0.968729
495 1 7.90566 8.89458 2.37189 0 -0.19912 -1.69486 0.384967
539 1 10.2335 8.34843 1.44952 0 -0.202552 -1.10726 -1.33916
913 1 6.4765 5.54909 3.21391 0 -1.06787 0.630195 -1.23407
773 1 7.36536 6.03221 1.88762 0 -1.37657 -0.948857 -0.514898
408 1 8.573 6.70052 0.213436 0 1.16532 -0.788149 -1.03983
461 1 7.74838 7.80953 2.07391 0 1.05462 -0.348176 1.35165
839 1 9.68585 6.55679 0.764417 0 -0.617001 -0.462095 1.57041
389 1 7.05794 7.00771 1.96329 0 1.54251 0.694539 0.445719
250 1 6.58535 6.57377 3.93742 0 1.36292 1.09671 0.008807
955 1 7.08298 5.68761 4.24605 0 0.36767 1.67419 0.349737