ITEM: TIMESTEP
0
ITEM: NUMBER OF ATOMS
1002
ITEM: BOX BOUNDS pp pp pp
0.0000000000000000e+00 1.0346399999999999e+01
0.0000000000000000e+00 1.0346399999999999e+01
0.0000000000000000e+00 1.0346399999999999e+01
ITEM: ATOMS id type x y z q mux muy muz
932 1 2.86912 0.889924 2.81739 0 -0.292285 1.46857 0.904589
599 1 2.8002 4.19724 0.868913 0 -0.121113 -0.606477 -1.63643
843 1 3.28683 1.99725 3.26435 0 -0.704531 -1.55309 0.389812
930 1 2.60848 2.39763 4.40678 0 -0.915508 0.417208 -1.43115
344 1 4.62668 0.866855 2.32261 0 1.69612 -0.385712 0.186574
988 1 3.84987 2.65008 3.78753 0 -0.365207 -1.5476 0.729353
949 1 2.4018 2.95884 3.05594 0 1.59498 -0.414704 0.586917
41 1 4.09846 3.60945 3.84173 0 -1.03819 -0.507855 -1.31325
780 1 0.982437 0.49619 2.9462 0 -1.71599 -0.266682 0.211353
321 1 2.86028 1.46038 3.99396 0 -0.554589 -0.77282 1.46819
618 1 3.83642 4.08414 0.884053 0 1.37804 0.441115 0.983275
397 1 4.54156 1.8437 3.72344 0 -0.0547185 -1.69143 0.443259
559 1 4.75727 0.626429 0.999725 0 0.094389 -1.55297 -0.799855
306 1 1.34173 4.38759 1.27953 0 -0.519208 0.337784 -1.63607
240 1 3.57122 2.46 1.47382 0 -1.1839 -0.826035 -0.988153
809 1 3.62769 2.21431 4.69065 0 -1.26648 -1.09475 0.507884
95 1 5.27506 3.92765 3.392 0 0.0505371 -1.58972 -0.728438
591 1 4.13856 1.30458 1.44818 0 1.14603 -1.28583 0.306068
880 1 4.3723 1.94859 2.49705 0 -1.67477 -0.0220744 -0.505019
91 1 3.11315 2.8366 5.31924 0 -0.912034 -0.242952 -1.47295
447 1 3.89592 0.104452 4.52056 0 -0.323075 1.66022 0.446876
513 1 0.743222 1.7566 2.80358 0 1.52802 0.0457083 0.85056
96 1 1.81811 1.70708 4.14578 0 -1.24924 0.813168 -0.915726
801 1 4.2541 4.91785 0.412844 0 1.06495 0.302027 1.35465
779 1 2.04759 0.0598215 3.76165 0 -1.02642 -1.40306 0.195645
156 1 0.733197 4.23472 3.78694 0 -0.750882 1.47841 -0.557559
967 1 2.62182 4.45996 3.84034 0 1.59604 -0.472983 -0.537898
363 1 3.13391 3.43316 1.86021 0 1.54294 -0.811901 0.143419
100 1 1.71662 3.93224 3.44218 0 -0.723039 1.55615 -0.340594
749 1 3.30032 0.265757 3.6624 0 -1.54095 -0.290433 -0.775578
526 1 1.34765 4.49878 4.52833 0 0.462311 0.985835 -1.36923
402 1 0.972368 1.45545 4.73017 0 0.216868 1.54996 0.781661
406 1 1.68895 4.95688 3.48915 0 0.591747 1.60786 0.353597
794 1 4.0576 3.86068 1.93603 0 1.09878 1.36116 0.0180593
651 1 3.98554 0.998832 3.92564 0 -0.903489 -0.797482 -1.26812
702 1 3.972 3.13351 0.32417 0 -0.47108 0.469651 1.618
870 1 2.26025 3.04646 0.906415 0 -1.31618 1.00755 0.559367
897 1 1.98151 5.07129 2.4418 0 0.542164 -0.956016 -1.36106
269 1 1.45358 4.07334 2.2573 0 0.830701 0.658727 -1.39155
72 1 2.24597 1.10609 1.77506 0 1.46583 0.759802 -0.578302
201 1 1.09622 3.12536 3.47788 0 1.42758 0.542408 0.85336
616 1 0.185851 2.71987 5.28319 0 -1.20188 0.993663 0.792788
878 1 2.43532 5.25327 0.743318 0 1.24557 -0.816334 -0.917908
836 1 1.45414 0.573736 4.44699 0 -1.48667 -0.914291 -0.119493
684 1 3.45949 3.80664 4.83826 0 1.68218 -0.32718 -0.351589
950 1 2.59321 1.6636 5.0435 0 0.231178 -0.213644 -1.72085
641 1 1.32815 3.10752 2.47329 0 1.59671 0.380837 -0.604881
202 1 2.27024 3.53496 4.94217 0 0.65625 -1.61638 -0.130597
536 1 3.14903 1.59282 1.37194 0 0.727095 -0.880726 -1.32516
176 1 3.81221 0.990871 2.92897 0 0.802792 -0.452238 -1.48708
954 1 2.4998 1.95505 2.66816 0 -1.45654 -0.752986 -0.609831
131 1 1.84036 1.10659 2.95419 0 -1.69366 0.225103 0.375822
679 1 1.61548 2.19452 3.07067 0 0.611281 0.929116 -1.35036
823 1 0.451786 1.04217 2.06507 0 -1.09997 1.268 0.49257
323 1 1.04633 2.68348 1.11599 0 -1.65273 0.386621 0.423568
468 1 3.37628 5.36134 0.436499 0 1.335 -0.901251 -0.682583
32 1 0.521759 4.53562 1.90255 0 1.28977 0.727148 -0.931749
381 1 3.47988 1.66219 2.22855 0 -1.65487 -0.120988 -0.554233
441 1 2.05209 2.56152 5.34609 0 0.0606467 -1.71722 0.328466
248 1 1.1886 1.45097 1.14728 0 -1.52824 0.828932 0.194332
861 1 0.238932 1.80074 1.37534 0 -0.42514 1.69362 0.106295
953 1 1.07941 2.33104 5.1585 0 -1.06952 1.32882 -0.388294
68 1 2.22695 3.23812 2.07882 0 1.49079 0.805358 0.435142
670 1 4.43103 4.44206 2.9437 0 1.29398 -0.07104 1.17514
451 1 2.52926 0.672331 4.47981 0 -0.677822 -1.57719 -0.336787
525 1 4.53875 4.88777 1.34108 0 0.524864 -0.261538 1.64819
936 1 3.68361 1.24014 4.92392 0 1.45795 -0.232786 0.9384
444 1 3.3491 4.88442 4.77302 0 -1.23277 -0.918732 -0.834639
59 1 4.41866 2.79703 1.60738 0 -1.60584 0.690847 -0.0664086
368 1 3.60272 4.49546 3.88322 0 1.73119 0.127006 0.217392
182 1 2.06234 3.07786 3.96608 0 0.239666 1.15669 -1.29036
378 1 3.05826 5.35333 1.57533 0 -0.642653 1.54841 0.499826
584 1 2.64199 0.196335 1.01328 0 -1.18547 1.05108 -0.741813
379 1 3.23387 2.20281 0.572897 0 -1.12332 0.1133 -1.33631
325 1 5.28735 2.48775 2.39619 0 0.852689 -1.52299 -0.117546
743 1 4.7855 2.89376 3.54566 0 -0.807049 -1.4759 0.480413
299 1 5.19982 4.14236 2.21489 0 0.523813 -1.53468 -0.656342
891 1 3.02437 3.14656 3.90287 0 1.44858 0.92534 0.325206
542 1 1.26183 3.28562 4.78916 0 0.927987 0.795889 1.25132
218 1 1.41938 1.84011 2.13117 0 0.547153 -0.571692 -1.56019
566 1 0.899872 2.27091 3.94808 0 -0.0196936 1.54015 -0.829421
287 1 2.12023 2.13086 1.548 0 1.18599 1.22814 -0.381452
552 1 4.52543 4.90588 4.07923 0 1.49275 0.88995 -0.200181
683 1 3.32838 0.604038 1.82424 0 -1.57801 -0.516272 0.551136
206 1 2.36666 4.30203 1.7085 0 0.571914 0.651144 -1.51965
61 1 5.1327 3.30979 4.4149 0 0.441244 -0.272183 -1.67081
890 1 5.02798 0.204478 4.68702 0 0.668229 1.43217 0.75018
318 1 3.51474 3.68446 3.10815 0 -0.0452829 0.106106 -1.74559
164 1 2.1199 2.1408 0.493463 0 -1.4691 0.810519 0.495178
428 1 1.10482 0.0168172 5.35171 0 -1.37784 -0.479121 -0.965603
657 1 5.42446 5.1746 5.28473 0 -1.51669 -0.343819 0.801152
972 1 3.38334 2.80851 2.6455 0 1.02375 -1.25861 0.654397
851 1 0.510992 3.50924 0.511628 0 -1.00902 1.00218 -1.01878
728 1 5.46215 0.672731 1.92246 0 1.20111 -0.553722 -1.14505
103 1 4.96337 1.91477 1.58478 0 -1.31234 -0.359342 1.09956
369 1 0.599587 5.23062 4.14174 0 -0.968655 0.522763 1.35972
773 1 0.422679 0.716906 4.99474 0 -0.293393 1.49075 -0.867173
712 1 4.36828 3.16471 2.61874 0 1.6321 -0.275316 -0.566435
26 1 3.34847 4.52888 2.16272 0 -0.930752 -0.674049 -1.319
572 1 0.546461 2.35205 2.07095 0 0.779246 0.094092 1.56343
273 1 0.977302 1.21794 3.64411 0 -0.568051 -1.26526 1.06623
488 1 4.24859 3.03124 5.19603 0 1.2205 -0.324135 1.21067
879 1 1.61205 5.42021 0.158433 0 1.47294 -0.0995251 -0.938587
652 1 0.559196 3.41332 1.56507 0 -0.97597 0.174719 1.4413
610 1 1.00852 5.38236 1.99372 0 0.902418 1.14729 -0.964241
23 1 5.10588 5.22772 2.07778 0 -0.237563 0.563312 1.6391
694 1 5.22496 1.08854 4.11553 0 0.897211 1.47559 0.279374
328 1 4.77286 3.66 1.06123 0 1.57337 0.74908 0.154248
551 1 2.35585 4.54814 4.86717 0 -0.903949 -1.38712 -0.564952
359 1 3.32495 1.08708 0.418408 0 1.33637 0.752159 -0.841893
560 1 2.0419 0.982124 0.848337 0 -1.57618 -0.021822 0.758675
400 1 1.46366 3.59617 0.821275 0 -1.22041 -1.1343 0.533245
646 1 1.05694 5.38986 0.962121 0 0.00564835 0.00425756 -1.74939
275 1 5.42648 0.745221 3.12496 0 0.871122 0.903181 1.21894
431 1 0.0507355 3.74022 5.3081 0 -0.630114 0.507431 -1.55109
782 1 5.07017 5.31702 3.11424 0 0.212716 1.73574 -0.0484514
547 1 5.05536 1.1265 5.16193 0 0.597691 1.43341 -0.805302
771 1 0.126681 4.0749 2.73413 0 0.0907834 1.73469 -0.207428
145 1 0.00857458 2.05185 4.46724 0 0.0354307 1.57356 -0.763582
271 1 0.431269 3.42676 4.29508 0 1.11166 0.970679 -0.939356
859 1 0.395096 2.83117 2.90054 0 1.20346 0.87445 0.920556
764 1 0.185041 4.79247 0.973028 0 0.379117 -0.193934 -1.69678
989 1 0.811444 4.48196 0.196396 0 0.17403 -1.43634 -0.983385
742 1 0.413088 4.81317 5.0068 0 0.666884 -0.721642 1.44738
997 1 0.0293443 2.77543 0.936548 0 -0.595946 1.63598 0.169778
418 1 2.4962 4.06303 2.82233 0 -0.673616 -0.998465 1.26874
538 1 1.90314 0.154306 2.77073 0 -1.5434 0.472911 0.674294
804 1 2.97508 4.95254 3.03492 0 0.726921 -0.225317 -1.57519
291 1 4.36691 0.38181 5.41252 0 1.44231 -0.904756 0.401932
567 1 4.08736 5.3621 2.28779 0 -1.08792 -0.469482 1.28702
89 1 1.31031 0.543184 1.97896 0 1.01187 0.862115 1.13723
856 1 0.829438 0.0230969 3.96874 0 0.394593 -1.64442 -0.447845
464 1 4.44422 5.06783 5.07366 0 -0.89239 -0.390418 -1.45314
60 1 3.71827 0.0431765 1.01512 0 -0.783851 0.073582 1.56223
752 1 0.84413 4.89231 2.85336 0 1.35659 1.10456 -0.00482362
941 1 4.41734 4.00744 4.70968 0 1.11922 -0.988043 -0.911874
352 1 4.29543 1.06063 0.242814 0 1.53481 0.766484 -0.342437
49 1 5.24042 0.544481 0.119427 0 -0.408995 0.362309 -1.66188
568 1 4.5685 2.02491 5.09682 0 -0.233626 1.11069 -1.33124
719 1 0.637169 0.618788 1.19665 0 1.35621 0.438291 1.0144
105 1 2.97729 3.32749 0.385581 0 -0.908172 -1.38004 -0.575427
934 1 5.43668 4.36731 0.838303 0 1.5555 0.789854 -0.130144
55 1 4.62242 2.21285 0.582799 0 -0.558329 -0.451094 1.59536
126 1 1.85389 0.773165 5.31502 0 0.977229 1.07571 -0.973791
518 1 2.09677 4.20195 0.123027 0 -1.00442 1.31343 0.571357
2 1 0.216799 0.661209 0.209073 0 -0.39617 -0.793229 1.50806
592 1 0.16888 1.96781 0.214495 0 1.30501 1.08809 -0.41643
124 1 5.23984 2.86333 5.43952 0 1.51468 0.635378 -0.602019
261 1 5.97886 4.01035 1.60927 0 -0.434264 -1.53546 -0.717071
741 1 5.48707 3.07394 1.58598 0 -0.238225 -1.73189 -0.0649853
927 1 10.0156 0.226755 4.00335 0 0.520197 0.887922 -1.41471
738 1 5.57615 1.57702 2.47978 0 -0.49176 -1.43425 0.872635
493 1 9.6012 1.26103 2.3352 0 -1.58762 -0.591388 -0.436032
962 1 10.108 0.342645 1.81077 0 1.09401 -1.35144 -0.192725
598 1 5.91602 3.4576 0.599649 0 0.608986 -0.551211 -1.54457
668 1 6.14039 2.57877 0.291437 0 0.123042 -1.52181 0.854019
769 1 5.78219 2.30014 3.40776 0 0.153192 -1.74139 -0.0670268
452 1 5.48332 2.19044 4.58919 0 1.68577 -0.199887 -0.422632
579 1 10.0624 1.0118 1.03285 0 1.4975 0.442383 0.7888
522 1 6.84944 4.26918 2.12254 0 0.0868394 0.989976 -1.43972
138 1 6.12872 1.30763 3.37697 0 1.73172 0.245794 -0.0337243
922 1 9.48759 1.85627 3.85393 0 -0.261542 1.20458 -1.24136
535 1 5.96124 4.83613 2.87773 0 -1.59661 0.570479 -0.431038
311 1 6.10926 3.02582 5.07115 0 1.61939 0.492554 0.442001
632 1 6.86803 3.71589 0.825573 0 -1.33759 -0.473516 -1.02325
940 1 10.2471 1.19288 3.67454 0 0.435356 1.68332 0.193148
466 1 7.1094 0.403482 3.79559 0 1.13624 -0.359319 -1.28072
31 1 6.42624 4.70901 0.762795 0 -0.0649868 1.28282 -1.18767
537 1 6.86853 3.09847 3.19985 0 1.32831 0.900568 0.696406
587 1 6.12818 2.95514 4.03133 0 -0.209058 -0.0944762 -1.73429
239 1 10.1002 3.08729 2.17905 0 0.913381 0.925238 1.1705
94 1 9.60653 4.7376 2.85504 0 -0.14058 1.28179 1.18222
504 1 7.36114 2.45956 1.94808 0 1.08798 1.21818 0.62669
996 1 9.11246 3.35349 2.07833 0 -1.09495 1.3551 -0.158686
120 1 7.82879 3.39965 2.65652 0 -1.11776 0.801084 -1.08133
792 1 6.48721 2.40918 1.42468 0 1.2902 -0.862211 0.807699
188 1 8.25634 2.82608 1.92236 0 1.21933 0.33349 -1.20931
122 1 8.16492 3.19847 4.56783 0 0.0972853 -0.475369 -1.68076
648 1 7.6264 2.35273 3.98423 0 0.616731 0.396758 1.58828
807 1 8.24717 1.5289 3.88306 0 -1.28489 0.472447 1.08915
14 1 10.0877 4.32506 3.70334 0 -0.351632 0.49785 1.63979
781 1 9.0955 2.72492 3.04249 0 1.2795 0.865042 -0.821572
814 1 8.946 1.09916 1.53957 0 -1.24576 -1.21388 0.186981
409 1 8.45952 4.5951 1.30543 0 1.31355 0.297025 -1.11659
274 1 7.03235 3.90678 3.91569 0 -0.210229 1.54666 -0.789971
304 1 10.2695 2.63903 3.75879 0 0.231297 0.51548 -1.65565
669 1 9.46436 4.8567 1.05877 0 0.94292 -1.29896 0.695704
294 1 7.35208 0.967919 2.99462 0 1.65056 0.489061 -0.311258
427 1 7.17612 2.09378 5.31963 0 0.243618 1.25348 1.19575
147 1 8.63159 2.45528 3.97867 0 0.67792 1.03976 -1.23277
499 1 6.54108 3.36629 2.02858 0 1.3734 1.06195 -0.215488
813 1 10.3132 0.0190337 3.05034 0 0.82185 -1.52974 -0.21177
978 1 7.44747 3.51852 1.69116 0 0.0559819 0.191817 -1.73795
828 1 6.19405 0.446618 1.18507 0 1.71847 -0.312729 -0.097269
717 1 6.49347 4.93788 4.59349 0 0.532025 -0.519117 -1.58362
571 1 7.62552 3.91148 5.17588 0 0.296144 -1.27368 -1.16208
33 1 9.8373 4.0888 1.81778 0 1.17915 0.640483 1.1224
65 1 5.74226 3.38876 2.69314 0 0.210401 -1.51302 -0.85258
865 1 6.86444 1.56704 2.27662 0 0.496675 1.63415 -0.378504
524 1 8.70678 4.41808 2.93165 0 -0.0920093 -0.123647 -1.7426
534 1 9.67769 3.61383 3.00216 0 0.976008 1.40527 0.364738
622 1 8.32595 4.13371 4.33844 0 -0.87999 -0.611516 -1.38277
639 1 5.97954 4.07693 4.10798 0 -0.370641 -1.01498 -1.3758
819 1 8.90866 1.63095 3.02299 0 -0.260739 -0.202399 1.71798
990 1 8.19954 2.54234 0.191169 0 0.281359 -0.301872 1.70003
9 1 7.62092 1.12562 0.3756 0 1.71344 0.0970236 0.339255
183 1 9.02312 3.49312 0.317911 0 0.741086 1.30085 -0.904981
272 1 9.2352 3.31889 4.07993 0 0.288085 1.64204 -0.530195
346 1 7.70312 2.79052 1.05026 0 -0.112761 -1.39311 -1.05211
200 1 6.91434 1.95222 3.29362 0 1.67216 0.513781 -0.0176661
685 1 6.50539 0.658326 2.54274 0 0.37402 1.66151 0.399857
232 1 7.66092 4.18265 0.379994 0 -1.65312 -0.461605 -0.338413
160 1 8.13221 2.01041 4.76721 0 0.78041 -0.414269 1.50988
101 1 8.42217 1.75972 2.19138 0 0.653827 -0.194252 1.61096
650 1 8.32083 0.74902 3.1651 0 1.41044 -0.263245 1.00088
937 1 5.49811 5.13048 4.28215 0 1.42251 -0.509547 0.881607
731 1 9.21161 0.480338 0.604662 0 1.55296 -0.596505 0.541193
938 1 10.0466 5.08351 1.90692 0 0.998153 0.0436715 -1.43603
615 1 8.5349 1.30791 0.652104 0 1.43891 -0.84659 0.522721
36 1 8.21766 3.35348 3.56086 0 -0.672922 0.366429 -1.57267
951 1 9.8205 3.90926 0.796923 0 -0.349329 -0.69895 1.5652
125 1 9.91026 5.10763 4.47809 0 1.08155 0.244251 1.35314
92 1 9.17411 0.77946 4.03414 0 0.783717 1.53238 0.313066
696 1 8.17327 0.524697 4.28051 0 1.56535 -0.116667 0.772307
234 1 6.3603 2.49838 2.45705 0 1.37308 0.712355 0.817062
465 1 9.4745 2.60933 4.8164 0 -1.51916 0.736714 -0.458041
161 1 6.40318 0.894772 4.28368 0 -0.00966238 -1.74902 -0.0351101
426 1 8.9583 1.56617 5.07478 0 1.34171 0.0829266 -1.11953
136 1 10.1157 1.86982 3.00713 0 0.99451 -0.780386 -1.20928
16 1 6.31745 1.3564 1.44897 0 -0.372482 0.332162 1.6767
703 1 9.47986 3.08696 1.20882 0 -0.254573 -1.14873 1.2946
83 1 8.0265 4.29828 2.11444 0 0.858841 0.803932 -1.29479
243 1 7.82051 2.25613 2.97501 0 1.45811 0.821951 0.508644
178 1 7.36148 4.52648 1.27751 0 0.461739 -1.37956 -0.971602
330 1 9.28788 0.46719 3.08001 0 0.915975 -0.871512 1.20907
415 1 7.46171 0.82896 1.82831 0 -0.465935 -1.6811 0.131235
569 1 6.63386 4.14105 3.06926 0 -0.620144 0.880267 -1.37875
634 1 5.97832 0.383547 5.04734 0 -0.546198 -0.362099 1.62202
438 1 7.3012 4.96486 5.33201 0 -0.691097 -1.25547 -1.00328
582 1 6.59164 3.88859 4.96581 0 0.382093 1.70512 -0.0834953
197 1 7.06542 3.04577 4.50793 0 -1.24552 1.04709 -0.642405
34 1 8.41897 3.61943 1.2087 0 -1.22819 0.655974 -1.05908
163 1 6.42694 1.88816 4.38006 0 1.03055 -1.41081 0.0893938
281 1 7.73542 1.75584 1.2635 0 0.129342 -0.159799 1.73728
753 1 9.89496 5.33401 5.3801 0 -0.595622 -0.903158 1.37475
461 1 7.25076 1.23923 4.85235 0 -0.134614 -0.849924 1.52312
29 1 8.83516 0.255649 5.32777 0 1.66279 -0.431705 0.330413
153 1 8.53664 0.33965 2.14517 0 0.667405 -0.954664 1.30522
52 1 9.13533 4.26576 3.81452 0 -0.814059 1.23059 -0.939869
925 1 7.85367 4.43074 3.54637 0 0.175646 0.5068 -1.66514
196 1 5.51309 4.18671 5.04816 0 1.11921 -0.305976 -1.30925
410 1 9.81188 2.19012 1.79097 0 0.261957 0.050264 1.72895
76 1 9.00372 3.40706 5.13943 0 0.111625 -0.67148 1.61154
635 1 8.66467 2.38688 1.00948 0 1.04806 -1.29451 0.534982
905 1 7.02277 1.89326 0.564965 0 0.323848 -1.71354 0.138954
393 1 10.1282 5.23855 0.148519 0 0.981759 0.92437 -1.11449
772 1 9.70473 4.19738 4.681 0 -1.63924 0.168563 -0.587261
514 1 6.44349 5.21703 1.80225 0 -1.13478 -1.01032 0.867136
137 1 9.73515 0.44185 5.05562 0 -0.174788 1.74053 0.0198588
835 1 7.42636 4.81868 2.74288 0 0.327677 0.317153 -1.68892
396 1 7.54316 4.83689 4.44035 0 0.175272 -0.0909327 -1.73822
141 1 9.19194 5.29178 0.141781 0 0.438092 -1.35276 1.01907
285 1 7.95023 5.27281 0.747068 0 0.10282 -0.455895 -1.68582
619 1 8.91173 4.95652 2.08845 0 0.83577 1.45312 -0.50033
411 1 9.08491 5.19131 4.0319 0 -0.127011 0.495097 1.67307
711 1 6.17875 0.130588 3.6383 0 1.60344 -0.244667 -0.655367
187 1 8.08682 0.436839 1.09163 0 -0.196957 -1.61896 0.632913
628 1 6.76931 4.89983 3.73222 0 -0.902535 0.692622 -1.32895
991 1 7.93446 5.46477 3.70144 0 1.44025 0.265275 -0.956921
776 1 8.78218 5.42741 3.14219 0 1.67161 0.341517 0.386629
721 1 7.71786 5.338 1.85768 0 0.0356638 -0.13408 -1.74389
316 1 5.64652 2.01456 0.892478 0 -0.398872 -0.869923 1.46442
515 1 5.60866 5.00376 0.0459407 0 0.214113 -0.16157 -1.72871
519 1 9.79649 1.28487 4.59955 0 1.08659 1.14779 -0.749865
404 1 6.1275 1.15277 0.451432 0 -0.526097 -0.595563 1.5585
626 1 8.68615 4.41639 0.33705 0 -0.613698 -1.37091 -0.896866
27 1 8.43801 4.69835 5.23099 0 -0.513561 -1.5927 -0.509876
821 1 6.26287 1.50571 5.31459 0 1.05958 -1.38198 -0.166835
791 1 9.4385 1.78685 0.943864 0 0.686695 -1.42916 0.739153
371 1 2.59227 10.2672 2.13872 0 -0.437352 -0.445693 1.63416
18 1 1.55905 5.6522 4.26936 0 -1.41978 1.00391 0.191796
558 1 1.84265 5.5695 5.46483 0 -1.43415 -0.749202 -0.665074
292 1 1.72971 9.84074 4.62909 0 0.347168 -0.0397563 1.71415
854 1 2.27393 9.37613 3.79575 0 -1.36848 -0.741039 0.799072
720 1 4.12949 9.90518 3.52069 0 -1.42173 0.536205 0.866934
235 1 5.41578 5.6653 1.01085 0 -0.130775 -1.52443 0.848185
597 1 3.49577 9.7392 5.12353 0 0.959503 0.906114 1.14835
984 1 2.42142 5.7107 3.62846 0 0.411662 -0.815736 1.49181
839 1 0.878505 5.86239 5.15074 0 -1.31329 1.14553 0.153086
765 1 3.00063 6.70057 3.6853 0 0.474008 0.249183 -1.66542
645 1 2.07461 5.75018 1.50408 0 -0.4725 -0.97402 -1.3742
985 1 3.64175 5.85807 4.34046 0 0.049611 -1.50441 -0.891449
116 1 2.53394 6.35896 0.490617 0 -1.58809 -0.660563 0.3194
454 1 4.18704 10.2819 1.88954 0 1.49174 0.45761 -0.79101
254 1 1.69989 9.04917 2.95817 0 0.458866 -0.914793 -1.4188
8 1 0.892151 9.63074 3.24378 0 0.675098 -0.934659 -1.3157
732 1 3.51829 5.74857 5.3883 0 0.787437 0.231027 -1.54498
894 1 0.457245 8.94033 1.91732 0 1.15782 -1.29025 -0.234726
718 1 5.29802 6.60912 0.740005 0 0.000189774 -0.358791 -1.71221
586 1 4.85595 9.04664 0.689318 0 1.24384 -0.652895 -1.04259
203 1 2.97745 5.8526 2.55351 0 -0.897734 0.744405 1.30397
994 1 2.52637 6.54673 1.93979 0 -1.00737 -1.30513 0.585007
605 1 1.18364 8.40053 2.51782 0 -1.61603 -0.364973 0.561824
408 1 3.76124 9.03342 2.54505 0 1.03797 -0.289149 1.37819
624 1 1.70133 6.60049 5.45964 0 0.904072 0.816924 -1.25526
672 1 2.56207 8.93651 4.76858 0 0.159866 -1.74159 0.0413409
354 1 3.00479 7.45974 1.32638 0 -0.644139 0.126197 1.62159
48 1 2.51583 5.5526 4.66337 0 -1.3187 -0.692663 0.917413
250 1 3.36477 9.59322 1.82782 0 0.141005 -0.0480964 1.74304
893 1 2.63949 10.0913 4.87835 0 0.86417 -1.51478 -0.138026
355 1 3.98796 8.84736 3.50261 0 1.07645 0.798039 1.12463
343 1 2.14499 6.37059 2.84735 0 -0.564689 -0.296107 1.62906
258 1 1.96569 7.4844 2.29919 0 -0.989203 0.0609246 1.44158
832 1 0.834149 7.1874 0.548196 0 0.73091 1.23086 -1.00556
231 1 0.51929 9.86201 1.39904 0 -0.17203 -1.51171 -0.863448
706 1 0.651622 6.37402 4.20928 0 -1.52438 -0.608534 -0.605278
130 1 1.09838 7.54854 1.71229 0 0.570269 -1.28787 -1.03759
227 1 4.77306 9.33473 1.63412 0 0.225674 0.25126 -1.71649
758 1 5.00766 8.99109 3.81057 0 -1.5543 -0.410041 0.690228
73 1 3.59819 10.2914 2.656 0 1.64596 0.213358 -0.552886
286 1 1.12824 5.94485 3.16881 0 -1.14582 1.1547 0.643552
422 1 2.93055 8.52809 1.21137 0 0.779366 0.542753 1.46915
733 1 4.45549 5.95696 1.53792 0 -1.54299 -0.159867 0.80871
186 1 1.66963 9.40906 1.98028 0 0.661391 -0.425268 -1.56273
942 1 2.09637 8.40933 4.15223 0 0.81594 -1.54081 -0.143293
339 1 5.00457 7.11578 2.7818 0 -0.112528 0.243491 -1.72871
637 1 1.47057 6.57927 2.05052 0 1.70955 -0.302656 0.215037
416 1 2.35799 7.69549 0.402904 0 1.45525 -0.963959 -0.115934
674 1 3.31765 7.90175 2.56336 0 0.180516 1.62909 0.611467
882 1 2.82037 7.09971 2.7982 0 0.837583 -0.0283696 -1.53559
540 1 3.28595 8.42524 4.09883 0 0.63435 0.448027 1.56757
810 1 3.84288 8.49523 1.72239 0 0.65729 0.864949 1.37122
578 1 4.9672 6.83872 1.69472 0 0.544399 -0.3556 -1.62406
931 1 1.15878 8.06833 3.51883 0 0.24072 -1.69288 -0.369588
961 1 4.33057 8.16172 4.16268 0 0.957759 -0.474156 1.38502
546 1 4.18594 8.08409 2.95187 0 1.60476 0.213715 0.662934
561 1 3.28909 9.59593 4.13804 0 -0.130665 -0.405957 1.69662
97 1 3.99918 7.09138 2.43035 0 -0.206178 1.42662 -0.991285
943 1 3.63079 6.41606 1.08329 0 -1.20939 0.456365 -1.17878
331 1 3.74687 8.73033 4.95916 0 1.20926 0.750547 1.01723
391 1 4.84358 10.2138 2.73641 0 1.20941 0.23015 1.24289
377 1 3.6361 7.35414 3.43645 0 0.555242 1.64644 0.203349
190 1 2.90678 9.60153 3.10066 0 0.569098 0.93822 1.36245
212 1 3.0576 8.62516 3.12305 0 0.371214 0.947477 1.42299
947 1 3.80766 6.39873 3.10442 0 0.30376 1.68719 -0.348595
686 1 1.61579 10.3336 1.08809 0 -0.15687 -0.652578 1.61553
151 1 1.04096 7.38456 2.81189 0 -1.58488 -0.330347 -0.662904
945 1 2.35006 7.96548 3.16031 0 1.38411 0.276126 -1.03364
189 1 1.93658 8.1674 1.64556 0 0.306909 -0.487293 1.65189
824 1 3.18713 8.33839 0.248168 0 -0.665735 1.04967 1.23102
745 1 1.20697 8.98347 1.12853 0 -0.575468 -1.54822 -0.576408
617 1 4.84692 8.14178 5.20379 0 1.16096 -0.794612 1.03979
142 1 4.10077 7.24471 1.49887 0 -0.0573069 -1.21304 -1.25922
256 1 5.06621 8.32518 1.76041 0 1.41562 0.0538985 1.0264
204 1 4.4918 6.58521 3.98651 0 1.68012 -0.487374 -0.00848061
387 1 4.38511 9.54345 4.58266 0 0.0770641 1.68849 0.451087
39 1 2.72337 7.61236 4.3327 0 0.386783 -1.48305 -0.843426
303 1 2.07645 7.10757 3.56291 0 0.495172 1.61658 -0.449304
508 1 0.197042 5.75386 2.69497 0 1.15819 -1.15697 -0.616786
127 1 0.670885 6.96085 5.09418 0 -1.16047 0.522152 -1.20044
911 1 5.21765 9.95715 3.90723 0 0.245116 1.42603 0.983234
198 1 1.02425 10.0338 2.34319 0 -0.152043 -0.56356 -1.64915
337 1 4.28559 6.14631 0.222469 0 0.825952 1.46477 0.482334
544 1 0.912553 8.95968 3.98875 0 0.994313 -1.06408 -0.969268
577 1 2.7994 8.79834 2.16483 0 1.0005 0.661241 1.27364
262 1 4.66416 6.14356 2.56956 0 -0.717496 0.475861 -1.52288
756 1 0.3719 8.05927 4.03523 0 1.50935 -0.838051 -0.282701
259 1 0.758185 8.0468 5.1856 0 0.185277 1.64705 0.559717
909 1 1.79891 7.68588 4.89947 0 0.615324 -1.61272 -0.284466
857 1 3.6726 7.43418 0.472829 0 -0.793138 1.55525 0.111951
280 1 1.51186 6.26153 0.773013 0 -1.11469 0.258706 -1.32323
75 1 4.36669 6.09554 4.95696 0 0.71352 0.344348 -1.55972
374 1 1.98604 7.04926 1.13379 0 1.68466 -0.142446 -0.449484
456 1 4.82075 7.53067 3.7182 0 0.578374 -0.671515 -1.50829
713 1 1.44057 8.0618 0.806882 0 1.50454 -0.618135 0.643952
473 1 5.36115 9.26276 5.24961 0 -0.195102 -1.73104 -0.160715
181 1 3.1447 6.54997 4.77537 0 -0.0343332 -1.33707 -1.12759
302 1 4.72334 7.01597 4.95375 0 0.249627 1.60871 -0.64043
113 1 0.0283975 9.47087 3.81708 0 0.255327 -1.36439 1.06473
995 1 5.39421 8.31086 3.15828 0 0.0628749 1.50756 0.885267
349 1 5.26378 6.1107 4.51281 0 1.53813 -0.453279 -0.699348
545 1 0.310791 6.41158 1.21867 0 0.156677 -1.20206 -1.26131
340 1 1.96696 6.7333 4.46916 0 0.657891 -0.314146 -1.59025
555 1 4.13965 5.49268 3.26168 0 -0.269226 1.72311 0.137133
211 1 0.251264 7.94733 2.11075 0 -0.312273 -1.64838 -0.495706
509 1 0.033857 9.2039 0.940212 0 -0.945766 -1.35647 0.570889
644 1 2.38569 9.63254 1.27645 0 1.05597 1.37754 -0.218427
698 1 3.33406 7.70065 5.26712 0 1.12414 0.134052 -1.33369
348 1 5.0069 7.66068 0.534802 0 1.3645 0.485446 -0.981261
862 1 4.87317 10.006 0.3919 0 -0.964708 0.750733 -1.25145
192 1 4.2199 8.28204 0.790011 0 0.645297 0.359158 1.58587
139 1 3.52572 9.32789 0.798878 0 -0.495858 1.12556 1.24404
541 1 4.76644 9.16828 2.77102 0 1.47486 0.837983 -0.427751
123 1 5.32028 6.35316 3.336 0 -0.181133 -0.0510484 -1.73925
709 1 0.847205 9.12789 4.98994 0 0.00911504 0.995506 -1.4385
351 1 0.0166602 7.38454 1.25826 0 -0.191416 -1.71425 -0.291744
562 1 0.469885 6.73222 2.20573 0 0.279928 -1.39762 -1.01425
310 1 0.157148 10.0419 4.74589 0 -0.660244 1.4859 -0.645438
46 1 0.374603 8.60076 3.03149 0 -0.320278 -1.49697 0.846694
884 1 1.0775 7.30975 4.04649 0 -1.09472 -1.31729 0.356015
244 1 0.424091 6.69094 3.186 0 -1.14219 0.812917 -1.04641
326 1 0.0274756 7.61325 3.15958 0 -1.49981 -0.899892 0.0340048
214 1 0.452226 8.29683 1.184 0 -0.153292 -1.6285 -0.620387
205 1 3.23505 10.3073 0.119691 0 0.401452 1.61212 0.548004
883 1 2.13189 8.74795 0.586069 0 1.2327 -0.797484 0.951253
445 1 3.8697 7.23191 4.47914 0 0.942788 -0.93415 -1.1397
485 1 0.518639 9.91015 0.343695 0 1.42293 -0.360809 0.951573
627 1 1.49924 9.49646 0.292238 0 0.469504 0.372309 1.64358
229 1 2.56612 7.03706 5.38515 0 1.55212 -0.778241 0.213667
885 1 5.49209 9.97021 1.25539 0 0.44928 1.10079 -1.28328
633 1 10.2593 9.66089 2.37279 0 -0.103443 -1.73939 -0.15566
727 1 6.49107 9.98976 2.46845 0 1.43251 0.904007 -0.437145
467 1 8.0723 5.64688 5.09531 0 -0.119452 -1.74508 -0.0286375
739 1 7.71203 10.1922 2.13543 0 0.277955 -0.86241 -1.49646
425 1 7.53992 10.2809 3.16018 0 0.0607664 -1.00175 -1.4329
317 1 6.04563 9.88233 4.47281 0 0.0630206 1.41325 1.02915
855 1 6.42728 5.66319 5.29386 0 -0.739958 -0.476896 -1.51176
373 1 8.5553 10.0667 2.96373 0 0.801232 -1.36652 -0.742336
494 1 9.93594 10.1325 0.489691 0 1.70511 -0.382612 0.0813252
623 1 6.61953 5.79277 3.23762 0 0.86741 1.51355 0.13107
981 1 5.58882 9.61448 2.47748 0 1.21835 0.894315 -0.881043
58 1 5.51077 8.15454 4.18612 0 -0.732533 -1.58296 -0.134322
805 1 6.14175 6.35088 1.55071 0 -0.11187 -0.113929 -1.7421
417 1 5.8199 9.35001 3.42433 0 -0.572736 0.887664 1.39443
307 1 5.91669 8.1297 2.2746 0 1.41428 0.285872 0.989193
17 1 5.881 10.2096 0.307964 0 -0.26493 1.21331 -1.23211
54 1 10.2008 6.34245 0.256712 0 0.208021 1.26659 -1.18865
767 1 9.55394 9.72308 3.21605 0 0.78417 -1.32354 0.832893
133 1 7.72289 10.0249 4.47384 0 -0.860234 1.50598 -0.228977
264 1 9.04794 9.72584 2.18215 0 1.74821 -0.0313574 0.0565009
28 1 8.99859 10.1465 4.09407 0 0.954506 1.30714 -0.663863
716 1 8.02083 9.67345 1.31924 0 1.05702 -1.23595 -0.644627
860 1 7.18173 5.92238 4.73052 0 1.66281 0.0483075 0.541411
490 1 6.48941 8.4551 0.81802 0 -1.45069 -0.653935 -0.726827
554 1 6.70817 6.90669 4.44357 0 1.23764 1.23595 0.0328343
611 1 5.7688 5.97018 2.58595 0 1.22593 1.22757 -0.224885
924 1 6.32289 9.37912 5.46219 0 -0.869687 -0.924348 1.204
614 1 6.0002 7.12075 2.18479 0 0.36558 0.72682 -1.5487
588 1 6.28616 7.79919 3.19002 0 -0.40455 -1.65729 -0.387476
481 1 9.84954 8.1744 0.804698 0 -0.544568 -1.29008 1.04859
172 1 9.6889 8.82134 2.64451 0 0.0675094 -1.40162 1.04465
86 1 8.47124 6.01793 2.2062 0 -1.57672 -0.756553 -0.044643
850 1 8.48695 6.12492 4.14235 0 -1.68041 0.463116 -0.148819
362 1 7.07388 5.60743 1.16329 0 -0.775927 -1.56134 -0.143408
834 1 7.61559 8.73401 4.01372 0 -0.678026 0.725402 1.4403
590 1 8.67553 8.57901 4.23594 0 -0.20493 1.52921 -0.824573
476 1 7.01074 9.21316 1.93978 0 -1.16312 -0.948921 0.898384
798 1 10.2131 5.78431 3.6104 0 -1.43482 0.786202 -0.619332
595 1 5.81523 7.24754 0.0920125 0 1.48723 0.824866 -0.410055
437 1 6.828 6.08742 2.30625 0 0.768813 -0.247029 -1.55187
734 1 8.29404 9.50673 3.80148 0 0.0509734 1.43844 0.994324
757 1 6.24822 6.03189 4.37147 0 1.55504 0.730056 -0.330539
327 1 6.00875 9.23393 0.450855 0 0.695858 1.28663 0.959567
663 1 6.62527 8.58266 3.69538 0 -0.766111 0.047771 -1.572
157 1 6.93379 7.49078 2.50614 0 1.03736 1.21152 -0.718679
613 1 5.80794 7.81024 1.16078 0 -1.07825 -1.1496 0.75907
112 1 7.0092 7.3276 3.62758 0 -0.644837 1.5297 -0.551904
107 1 6.23162 6.00304 0.235773 0 -1.44292 0.929545 -0.338146
108 1 7.78521 6.16401 2.8552 0 -1.54886 -0.785527 0.210636
987 1 9.13853 9.99417 1.11353 0 1.54643 0.748237 0.330297
435 1 8.08934 9.24545 2.51095 0 -0.0247854 0.43066 -1.69538
808 1 9.5616 7.796 4.26251 0 -0.740241 -0.627336 -1.45564
69 1 10.153 6.99495 3.99549 0 -1.689 0.0918401 0.446374
332 1 6.43006 8.92086 2.71813 0 -0.597362 1.46079 0.754757
412 1 8.77062 8.94855 1.4483 0 1.62282 -0.460284 -0.46368
553 1 6.88029 9.6613 3.77999 0 -0.648055 -0.931202 1.33165
900 1 9.54936 6.98992 1.71638 0 -0.62955 -1.1419 -1.16625
687 1 8.10003 7.5934 3.15989 0 0.427116 1.52712 -0.738831
762 1 7.08595 9.2959 0.823527 0 -0.125303 -1.6337 0.612974
155 1 7.80346 7.95359 1.89891 0 -0.988599 0.621219 -1.30275
968 1 8.66111 8.655 3.22933 0 -0.40655 1.60076 -0.5768
180 1 7.8899 7.02995 2.24873 0 -1.36717 0.31202 -1.04589
585 1 9.33679 6.89275 4.6672 0 -0.868227 1.04956 1.09773
13 1 9.24654 7.74034 3.38419 0 -0.794753 1.08908 -1.11476
939 1 8.59014 9.46175 4.87499 0 -1.49856 0.885283 -0.176037
957 1 9.60943 7.71517 2.4033 0 -1.21772 -1.13309 -0.541918
390 1 9.31159 6.36538 3.72693 0 -1.36723 0.388826 1.01975
15 1 8.75583 5.7588 1.24695 0 -0.291049 1.60359 -0.635751
345 1 7.05644 10.2491 1.35366 0 0.772134 -1.43198 -0.643146
110 1 9.78761 8.82457 1.67797 0 0.562902 -0.73549 1.48411
225 1 7.4993 8.45473 3.04388 0 -0.0152276 1.23448 1.23945
341 1 9.75647 6.82559 2.91183 0 -1.60235 -0.682479 0.164598
315 1 9.81181 8.57763 3.64702 0 0.570466 -0.0443701 1.65318
604 1 6.4083 6.75682 3.07611 0 0.708204 1.00298 -1.24614
811 1 8.75974 8.03683 2.2477 0 -1.68249 -0.36117 -0.314935
596 1 8.81046 6.82563 2.68461 0 -1.39597 -0.535963 -0.907976
812 1 7.64188 7.75166 4.56063 0 0.601585 1.5959 0.389358
162 1 6.07178 9.17416 1.55952 0 -1.72271 0.178292 0.246759
512 1 10.2032 8.8422 4.55778 0 -0.367115 -1.09382 1.31499
173 1 9.85837 5.81995 1.10477 0 -0.404631 -0.613575 -1.58751
184 1 9.04882 7.77251 1.26471 0 -1.05799 -0.981526 0.988767
469 1 6.75535 7.63424 1.51063 0 -0.581957 0.107879 -1.64623
226 1 9.52256 5.80251 2.6215 0 0.304575 -0.0470224 -1.72204
308 1 7.35327 7.20882 0.533068 0 1.59923 0.679423 -0.20306
247 1 9.28788 6.94314 0.618048 0 1.03411 -0.558259 -1.2959
866 1 7.74718 6.32511 1.38077 0 -0.123785 -1.31879 -1.14275
413 1 7.56813 8.23164 0.983414 0 -0.0970125 1.08161 -1.37153
902 1 8.54019 7.08626 3.87526 0 -0.581049 1.10028 -1.2297
701 1 7.08106 9.37297 4.72658 0 -0.279209 1.48563 0.880533
257 1 7.32139 6.15455 0.422489 0 -1.32074 -0.971918 -0.609442
442 1 7.6085 6.61656 3.92173 0 -0.78057 1.15622 -1.05559
548 1 8.57538 6.92193 1.50037 0 -1.46849 -0.949495 -0.0490376
842 1 7.82768 8.79484 4.97824 0 -0.587773 0.547353 1.55413
796 1 8.98231 8.09147 0.201657 0 0.386624 1.63018 0.503435