ITEM: TIMESTEP
100000
ITEM: NUMBER OF ATOMS
1002
ITEM: BOX BOUNDS pp pp pp
0.0000000000000000e+00 1.0346399999999999e+01
0.0000000000000000e+00 1.0346399999999999e+01
0.0000000000000000e+00 1.0346399999999999e+01
ITEM: ATOMS id type x y z q mux muy muz
1001 2 5.25945 5.01133 5.26168 -13.626 0 0 0
744 1 2.2526 0.555806 3.47335 0 -1.68727 -0.279203 0.368203
886 1 4.92133 2.87343 2.83273 0 0.501306 -0.142652 -1.66995
299 1 1.95665 0.853734 2.44329 0 -0.582718 0.321501 1.61786
783 1 1.98669 1.54563 1.70955 0 0.350309 -1.12922 1.2894
162 1 3.56693 3.61454 2.59837 0 -0.850018 1.49006 -0.342895
432 1 4.78639 2.75915 1.33125 0 0.334113 -0.667076 1.58233
993 1 2.03686 2.49887 2.27702 0 -1.352 -0.290484 1.0715
885 1 0.245447 2.07618 2.32583 0 -1.1695 -1.0776 -0.728999
302 1 2.74513 1.8227 0.256445 0 0.260753 1.68157 0.405875
551 1 3.41695 2.37151 1.11451 0 -1.3334 1.08184 0.334772
12 1 1.93299 5.0443 0.289863 0 -0.601466 0.624741 1.51932
596 1 0.730937 1.94394 5.08692 0 -0.970001 1.45312 0.0891366
58 1 2.94674 1.29167 1.16675 0 -0.693237 0.489962 -1.52963
50 1 5.09375 3.67753 4.60943 0 1.38986 -0.355964 -1.00099
715 1 2.42028 3.55441 1.99336 0 -0.35363 0.349067 1.67735
552 1 3.90411 4.73702 2.93045 0 -1.64945 0.14741 0.563903
676 1 4.48568 3.4979 3.79926 0 -0.98098 1.40469 0.353466
733 1 4.883 1.6897 1.17735 0 -1.17269 -0.404335 -1.23358
880 1 3.94419 3.87355 4.894 0 -0.402936 -1.68847 0.21708
547 1 0.803685 1.298 0.675497 0 -1.62639 -0.573337 0.294202
918 1 2.99026 1.53993 3.16147 0 -0.206787 -0.3262 1.70623
89 1 1.52237 3.50366 2.69973 0 -0.265416 -0.159963 1.72173
713 1 2.61555 3.49201 3.11365 0 -0.619539 -1.46684 0.724527
743 1 1.29687 1.7862 2.57355 0 -0.937643 -0.0354792 1.47647
631 1 2.79131 4.19518 3.98168 0 -1.49803 0.283038 -0.858022
557 1 4.43614 2.75674 4.92035 0 -0.805688 1.20117 0.984104
786 1 2.24025 4.50263 3.27126 0 -1.00199 0.524528 -1.33465
170 1 2.97369 2.75608 2.25875 0 -1.33174 1.10606 -0.251979
205 1 3.59581 1.24692 0.250971 0 -0.71876 -1.49194 -0.563825
487 1 2.38294 0.464956 1.63558 0 -0.104665 1.27562 1.19258
361 1 4.21281 2.01823 0.559256 0 -1.64121 0.189965 0.575101
266 1 4.03815 2.47494 3.08554 0 -0.84573 1.4765 -0.406293
836 1 1.07486 0.705127 3.36926 0 -0.71403 -1.23461 1.01306
293 1 0.872554 2.27929 3.28502 0 -1.1071 1.29288 -0.403978
3 1 1.64952 3.03174 1.50577 0 0.399062 0.475827 1.63546
494 1 1.26055 4.4799 3.34635 0 -0.660123 0.762163 1.4296
792 1 1.68876 4.49192 2.39117 0 -1.10037 0.505788 1.26245
778 1 3.98579 1.87444 1.77041 0 -0.992505 1.20292 -0.792664
961 1 0.939752 2.18212 1.54939 0 1.42919 -1.00294 -0.109163
317 1 3.04855 0.933483 3.93172 0 -1.60102 0.420589 0.565904
659 1 3.35189 3.35885 3.90262 0 -0.0536234 1.74574 0.0995827
443 1 2.75771 3.01126 0.465568 0 -1.40768 0.975679 -0.356221
694 1 0.844953 3.09972 0.875474 0 0.51863 0.372216 1.62877
757 1 2.50788 1.42144 4.61112 0 -1.06817 1.26686 0.560786
870 1 0.455641 2.23858 0.502163 0 0.360815 1.55758 0.710033
691 1 3.79902 2.95354 0.330114 0 -1.30646 1.16283 -0.0372206
848 1 4.54844 3.86802 2.73166 0 0.668615 0.161491 1.6085
975 1 3.41531 4.68643 4.81367 0 1.29884 -1.16888 0.0844149
90 1 3.60899 0.987614 1.82457 0 -1.54485 0.600215 -0.559992
995 1 3.70644 0.461347 4.58189 0 1.13029 1.1183 0.729561
946 1 4.29145 0.839438 1.04071 0 -0.130296 -1.65485 0.552177
677 1 2.83167 3.74816 4.88994 0 -1.12187 1.25778 -0.468818
896 1 5.19308 4.09822 1.71722 0 -0.561949 0.654437 1.52195
920 1 2.39175 2.37725 1.1833 0 -1.72116 -0.241491 0.199237
751 1 0.690831 0.190723 4.46595 0 -1.06267 0.35679 1.34307
773 1 0.759428 0.548223 2.40341 0 -0.222471 -1.56172 0.756262
844 1 0.329124 3.24457 3.16241 0 0.863561 0.935986 1.19941
263 1 2.35589 3.69098 1.04152 0 0.783106 0.0247952 1.56414
356 1 2.9829 4.30947 2.31625 0 0.0176437 1.53606 -0.83703
309 1 3.30676 3.64671 1.59919 0 0.916325 1.48949 0.0465121
230 1 4.19852 3.00107 2.1668 0 -1.21932 1.2437 0.163988
143 1 2.82713 2.18755 3.92034 0 -0.0277779 1.64586 0.592258
320 1 2.21682 3.25851 4.06904 0 -0.581746 0.881979 1.3943
537 1 4.75098 3.26483 0.0484532 0 -1.67541 0.40465 -0.299453
130 1 4.79068 1.79541 4.36747 0 -0.994221 0.980597 -1.05373
49 1 4.5619 4.60501 4.46771 0 1.4076 -0.0895522 1.03491
829 1 4.89714 2.65688 3.81739 0 0.0082699 1.04743 -1.40115
234 1 4.75828 1.80361 3.27877 0 -1.40669 0.823942 -0.63462
776 1 1.92132 0.607673 4.75082 0 0.128099 0.886491 -1.50271
591 1 4.68735 0.179206 0.309617 0 0.572684 1.05609 -1.27166
621 1 4.01902 1.21481 3.84101 0 -1.41956 -0.802577 -0.633347
286 1 1.61535 1.85168 0.70839 0 0.168612 -1.7412 -0.0136584
483 1 3.98285 2.33991 4.0996 0 1.04511 1.40051 -0.0820293
314 1 5.14869 2.13122 0.115516 0 0.0921809 0.193433 1.73623
513 1 0.644452 4.58798 0.610985 0 -1.71465 -0.34589 0.0273484
679 1 4.09609 3.51021 1.12244 0 1.56993 -0.715235 0.290085
700 1 5.26151 0.719262 1.13634 0 -1.38018 -1.05511 0.205547
941 1 1.87787 1.53013 3.42779 0 -1.2927 0.952352 0.694507
223 1 0.221235 4.97518 1.537 0 -0.731742 -1.24079 0.992671
654 1 0.985774 2.76971 2.28404 0 -1.3635 -0.692545 -0.849492
608 1 0.749047 4.38834 4.19946 0 -1.4839 0.926503 -0.00673379
590 1 1.66614 3.10176 4.92002 0 -1.44063 -0.369901 0.920959
816 1 1.69992 5.30231 2.84453 0 0.0231329 1.30241 1.16773
387 1 2.87737 0.747436 2.53721 0 -0.84874 1.48401 0.371166
440 1 3.88988 1.47742 2.72572 0 -1.19025 0.910715 -0.902394
305 1 5.19186 0.934968 3.6487 0 0.523078 1.59984 -0.476768
126 1 1.80882 0.90498 0.643685 0 -0.854601 -1.32509 0.757763
186 1 2.46775 2.48261 4.90987 0 -0.725448 -0.339671 1.55523
448 1 1.10596 0.0553389 0.425895 0 -1.59071 -0.400425 0.60803
668 1 1.79332 2.69579 3.23861 0 -0.0713544 0.59575 1.64329
146 1 1.57092 2.28084 4.2413 0 -0.879368 1.20973 0.907562
267 1 0.45476 1.7248 4.15088 0 -0.612182 -0.458212 -1.57343
183 1 2.93725 1.7661 2.19216 0 -0.0713215 1.69204 0.438542
374 1 0.759965 3.94725 2.15588 0 0.676999 0.658001 -1.47279
228 1 1.02947 1.19837 1.70818 0 -0.846816 0.30077 1.50095
477 1 5.06801 1.96452 2.25332 0 -0.566127 -0.392844 -1.60797
550 1 5.0906 1.05818 0.112534 0 -0.0333441 1.71089 0.36352
390 1 1.76382 4.32441 4.56463 0 -0.936592 1.3614 0.574266
843 1 2.90586 4.54376 1.31401 0 -0.488585 1.31407 1.04637
823 1 2.22052 5.2518 1.69642 0 -1.29848 -0.175661 1.15909
322 1 0.737318 5.05032 2.48526 0 1.16016 -0.604992 1.16121
671 1 5.04963 4.7744 0.891068 0 0.0269845 -1.3462 -1.11688
355 1 0.867692 5.45416 4.62956 0 0.62129 1.51757 -0.609403
874 1 3.77773 4.23179 3.92156 0 -0.616262 1.53083 0.580679
104 1 1.32546 3.94541 1.34664 0 1.29801 1.0983 -0.411472
427 1 4.54627 1.03817 2.05758 0 -1.66081 -0.476235 -0.274401
727 1 2.96657 5.20838 0.410021 0 -1.1039 0.238601 -1.336
761 1 3.42109 2.94972 4.80136 0 -1.70305 -0.0631067 -0.395034
26 1 1.80294 2.8466 0.42971 0 -1.15015 -0.977335 0.884512
479 1 0.0618272 2.70303 3.94273 0 -1.60507 -0.506352 -0.477251
629 1 0.180678 0.76393 0.171091 0 -0.9333 -1.3278 -0.652912
321 1 0.20049 4.49664 3.43509 0 -0.640489 1.38458 0.856223
669 1 1.40562 0.183194 1.64801 0 -0.67705 1.61154 0.0701939
543 1 0.0080356 1.27176 3.29043 0 -0.41027 -0.753187 -1.52473
386 1 0.24839 0.646462 1.24031 0 -0.456671 -1.66376 -0.289401
869 1 0.000200329 0.862724 4.7536 0 -1.46659 0.665398 0.683208
890 1 5.22347 5.32986 4.24563 0 1.38012 -0.736148 -0.783434
989 1 3.74011 0.16464 2.41353 0 -0.660712 1.61343 0.143934
618 1 4.71744 0.0249511 1.85437 0 -1.24977 -0.427576 1.14702
718 1 3.3616 0.128783 3.38515 0 -0.000154326 1.42782 1.0108
610 1 4.82212 5.01961 3.0826 0 -1.15166 -0.764738 -1.07203
568 1 3.25664 3.98313 0.481059 0 -1.23694 0.674781 1.03685
496 1 4.39122 0.0706241 3.72593 0 0.576089 1.3223 -0.989968
168 1 4.51624 0.712929 3.01088 0 -0.193548 1.73845 -0.0269969
930 1 3.10962 5.11502 3.49398 0 -1.61024 0.668771 0.142338
446 1 3.88661 4.42651 1.9648 0 1.38297 0.658052 0.845433
614 1 3.17855 5.24555 2.0664 0 -0.166048 1.46222 0.9459
32 1 4.13123 4.52452 0.636631 0 -1.55476 -0.695271 0.399636
878 1 5.10842 5.01997 1.9452 0 0.432328 1.5954 -0.572889
516 1 2.55456 5.11702 4.62779 0 0.719181 -1.28831 0.939913
592 1 1.30621 3.91574 0.211193 0 -1.60888 -0.643435 0.240625
239 1 1.22916 5.01126 1.29085 0 -1.64905 0.0341628 -0.582979
742 1 1.32462 3.59351 3.73161 0 -0.290161 1.6048 0.633095
177 1 0.684445 2.97857 4.65522 0 -1.55085 -0.0480893 -0.808058
622 1 1.30006 1.28453 4.51964 0 -0.304116 1.70892 0.217996
195 1 3.79514 1.73606 4.89506 0 -0.712591 0.736827 -1.41764
279 1 3.08599 0.377738 0.58782 0 -0.707441 -0.127973 1.59485
613 1 2.85095 0.471128 5.18239 0 0.977942 0.317117 -1.41544
132 1 4.97485 1.97908 5.36993 0 0.0767667 -0.915359 -1.48883
806 1 4.53279 0.952334 4.78116 0 0.996317 1.43781 0.0214498
414 1 5.46343 1.12852 5.21286 0 1.67221 -0.170793 0.484712
855 1 1.75546 1.69594 5.46257 0 -0.765823 -1.16611 1.05551
875 1 0.67038 4.266 5.23035 0 -1.40361 -0.145382 1.03399
188 1 5.57097 3.10982 0.901611 0 -0.821998 -0.561392 1.4386
722 1 9.96079 2.49915 3.03801 0 1.27151 1.1391 -0.382278
998 1 5.82625 0.440114 0.233496 0 -1.33253 0.843602 -0.757027
478 1 10.3345 3.56037 1.36509 0 -0.723668 0.425349 1.53486
790 1 5.47121 3.11061 1.8829 0 1.0358 1.30929 0.522761
574 1 5.52497 2.73744 4.54554 0 -0.601716 0.570384 -1.54045
147 1 5.64313 3.41073 3.73499 0 1.15297 0.681497 -1.12544
37 1 6.04487 0.0567862 1.47317 0 -1.46796 0.802758 -0.510967
692 1 6.00725 1.76918 2.71931 0 -1.59578 0.430227 -0.573417
76 1 6.07331 0.430508 4.60831 0 0.528576 1.08155 -1.26935
296 1 6.10612 3.94295 1.37767 0 -0.986972 1.4431 -0.0613
377 1 5.81966 2.16387 3.74659 0 -0.850668 1.50584 -0.263088
533 1 5.91789 2.17042 0.712812 0 1.14431 1.20759 0.540995
539 1 9.71282 1.86765 3.77645 0 -0.214235 -0.936572 -1.46196
424 1 7.22186 3.60287 1.85652 0 0.804285 1.51636 -0.33791
661 1 6.24848 0.811644 3.21596 0 -0.99545 0.772976 -1.21326
482 1 9.95398 4.90618 4.13319 0 -0.719612 0.21854 1.57949
570 1 5.86973 4.80514 0.308707 0 1.55713 -0.330526 -0.725592
100 1 9.39362 1.34052 2.73055 0 -1.49477 0.471079 -0.777265
994 1 10.1611 3.89396 4.23815 0 -0.614724 -0.610127 1.51995
438 1 9.92213 2.73354 0.222743 0 -1.57031 0.635324 -0.436914
777 1 6.60529 3.47555 3.51855 0 1.35248 0.160312 -1.09796
111 1 9.1558 5.29906 3.37686 0 -1.57233 -0.676079 0.362062
124 1 6.32305 3.48725 2.28835 0 1.50855 0.872207 -0.154719
637 1 9.64026 3.64571 3.23821 0 -0.828492 1.29437 0.835825
525 1 10.3103 3.70708 0.387421 0 -0.172702 -0.997683 1.42661
512 1 10.1575 3.26979 2.27322 0 1.32078 -0.432739 1.06239
638 1 10.192 1.52318 1.10352 0 -0.334088 -1.71639 -0.0528036
376 1 6.1134 1.31923 4.09059 0 -0.356776 1.71234 0.0316585
108 1 6.73364 2.33583 4.17843 0 1.38538 0.0448853 -1.0673
207 1 6.95074 0.600249 3.90967 0 1.2476 0.676236 -1.02303
735 1 7.79016 4.25574 2.33647 0 1.12641 1.15525 -0.67602
682 1 9.38222 2.297 2.09462 0 1.36027 0.138097 -1.09132
71 1 7.98403 4.08384 1.2589 0 0.281391 0.55147 -1.63618
588 1 9.45963 0.823789 3.79902 0 -0.9811 1.15303 -0.876563
623 1 9.02792 3.03953 0.330821 0 -1.35626 -0.310097 -1.06057
760 1 8.10992 4.80832 3.42224 0 -1.1481 0.824194 -1.031
129 1 6.26494 3.71233 0.32937 0 0.63039 -1.14531 1.16245
1 1 7.00538 2.69805 2.35103 0 0.198576 1.20781 -1.24987
729 1 8.34301 0.371157 1.26826 0 -0.634403 1.0085 1.28096
939 1 9.30595 2.87876 3.92671 0 -1.22278 -0.510069 -1.14238
385 1 7.54073 1.57797 3.54748 0 0.918646 1.46148 -0.283861
555 1 6.04722 2.753 2.91901 0 0.819386 0.986109 -1.19021
800 1 7.39731 1.0474 1.1194 0 -1.15833 0.839619 -1.00683
966 1 6.87747 1.96373 1.6192 0 -1.50914 0.585779 0.663145
238 1 9.79148 4.07729 5.2132 0 -1.53077 0.75899 -0.375601
212 1 7.91663 1.74389 5.11055 0 -0.726525 1.56959 -0.2626
227 1 7.66312 1.17783 2.08182 0 -1.17912 0.259669 -1.26596
62 1 6.54159 1.2399 0.661868 0 -1.43364 0.722337 -0.695206
606 1 8.68355 1.86228 1.38438 0 -0.708132 1.53965 -0.434086
358 1 10.278 1.13275 2.29268 0 -0.614806 -1.58371 -0.417467
422 1 7.00162 3.87546 0.869056 0 -0.957419 1.45006 0.202686
285 1 7.66659 1.96223 0.667317 0 0.073962 1.4377 0.993951
971 1 6.69977 4.24885 2.88243 0 0.888482 1.19702 0.915503
166 1 8.91007 4.10306 0.809556 0 0.0730982 -0.764735 -1.5717
298 1 8.88276 3.81787 1.98326 0 -0.788843 -0.746854 -1.37125
973 1 9.34407 3.32181 1.30608 0 0.569844 -1.62737 -0.295525
307 1 8.91757 2.50991 2.98956 0 0.568849 0.272343 -1.63176
437 1 8.75698 1.59723 3.62758 0 -1.17219 1.29745 -0.0547223
163 1 6.61103 2.76782 0.288618 0 0.782797 0.420273 -1.50698
83 1 8.18062 2.30734 4.1593 0 0.00441644 1.39149 1.06026
948 1 7.31018 3.79219 4.7451 0 0.721345 0.247511 1.57442
357 1 8.3581 2.92161 1.20531 0 -0.274954 1.60373 -0.642545
272 1 7.46457 2.81163 4.60249 0 -1.05477 1.21346 0.68948
862 1 9.36876 0.992477 1.77538 0 -0.564722 0.295657 -1.62913
465 1 8.03055 3.31686 3.72674 0 -0.0265267 0.380475 -1.70732
121 1 5.87468 1.63606 1.59973 0 -1.66738 -0.247262 -0.468086
174 1 10.142 4.26473 2.1743 0 -0.473988 -0.926412 1.40624
39 1 9.7467 2.35111 1.22084 0 0.675403 -1.32339 -0.923511
690 1 8.91183 0.024495 2.05506 0 1.27561 -1.19456 -0.0790589
245 1 6.45871 2.99637 5.15493 0 -1.66086 0.549092 0.020761
311 1 7.25438 4.19362 3.7754 0 -0.973967 0.573851 1.3351
410 1 6.43006 1.02068 2.03607 0 -0.600615 1.49259 -0.68691
752 1 9.15868 3.81165 4.40991 0 -0.567224 1.63156 -0.276875
252 1 8.23303 3.00149 2.30352 0 -0.395245 -0.980773 -1.39365
510 1 8.99521 4.31523 3.54556 0 -1.25119 0.187256 -1.20825
399 1 9.87193 0.320685 2.87178 0 -1.11919 0.27601 1.31592
359 1 7.15649 2.58313 3.28456 0 -0.216719 1.56744 -0.746042
199 1 9.37021 0.384531 4.68271 0 -0.282748 1.39126 -1.02218
640 1 5.68622 0.34317 2.51865 0 -0.950568 -1.05447 -1.02221
389 1 7.90768 5.14252 1.12051 0 0.876843 0.995834 1.14011
456 1 7.16935 1.42809 4.48352 0 -1.48922 -0.747983 -0.532128
827 1 8.90604 1.68625 4.74005 0 0.677616 1.44284 0.720734
560 1 8.14173 1.04582 4.2771 0 -0.380691 1.47311 -0.863384
753 1 7.02789 1.71705 2.73423 0 -0.693724 0.303064 1.57712
23 1 7.20692 0.636266 2.85853 0 0.751376 1.42647 -0.678988
226 1 8.65002 3.65181 2.96216 0 -0.507563 -0.636131 -1.54859
42 1 8.28416 0.831446 5.30916 0 -0.724054 0.995055 -1.24339
809 1 7.3457 3.53327 2.86078 0 1.01002 1.3517 -0.461712
517 1 8.98115 1.94063 0.302797 0 -1.18465 -0.971142 -0.844915
259 1 10.0721 5.21095 3.03319 0 -1.38544 0.444063 0.971481
683 1 7.52804 0.376251 4.766 0 1.59065 0.0415897 -0.726973
278 1 8.45242 1.75885 2.4428 0 -0.346694 0.628008 -1.59556
703 1 7.41126 2.91141 0.982878 0 -0.818197 0.721682 -1.36753
529 1 8.04562 2.74166 0.0897921 0 -0.869768 -0.442149 -1.45204
365 1 6.45076 2.90655 1.46213 0 0.0557634 1.10214 -1.35741
797 1 8.46903 0.21378 3.7798 0 -1.11418 0.988156 -0.917903
472 1 5.5268 4.11402 2.9351 0 1.12885 0.733339 -1.11728
93 1 9.5854 5.22552 2.11051 0 1.70007 0.363398 -0.195184
605 1 6.28391 3.77374 4.46253 0 1.28826 0.674167 -0.972777
316 1 9.84166 1.94138 4.80715 0 -0.118118 1.71548 -0.32186
221 1 7.76039 2.26814 1.92534 0 -1.67044 -0.506254 -0.117214
224 1 6.88924 4.91634 0.68032 0 0.907501 1.38075 -0.574769
383 1 8.29713 0.658875 2.63765 0 0.0906671 0.058377 -1.74607
367 1 9.82371 0.0661153 0.770208 0 -0.458488 -1.68664 -0.0736098
597 1 7.08958 4.71369 1.66525 0 0.0866207 1.74261 -0.127355
882 1 7.24949 5.31565 3.27578 0 -1.17208 1.29793 0.0446589
826 1 9.89637 4.45681 0.979071 0 -1.01722 -1.17371 0.805031
237 1 7.28227 5.28901 4.32524 0 0.314808 1.34066 1.07885
290 1 8.88199 2.8404 4.8605 0 0.0394531 1.72726 -0.274637
765 1 9.28812 0.949399 0.663963 0 -1.69387 -0.135514 -0.415749
455 1 8.05264 3.69139 0.324596 0 -0.175404 -1.5708 -0.749819
213 1 9.94888 5.25991 5.20374 0 0.950428 -0.748746 1.26351
435 1 9.09349 4.69762 4.77815 0 -0.912478 1.42562 0.442047
782 1 6.08376 4.73169 4.67114 0 -0.67201 0.357426 1.57513
954 1 8.32825 1.18431 0.534419 0 -1.61482 -0.0133742 -0.672742
919 1 5.96151 4.53492 2.14244 0 1.2477 1.04044 -0.648956
587 1 8.18597 4.20069 4.25246 0 -0.0575207 -1.70444 -0.38986
200 1 9.36678 5.22713 0.613753 0 -1.64841 0.30443 0.500467
589 1 8.84574 4.60227 2.54677 0 1.48096 -0.132291 -0.92176
924 1 8.83964 5.04503 1.51961 0 0.85941 0.214254 1.50861
421 1 8.47546 4.94457 0.225544 0 0.0705881 1.06886 1.3831
470 1 6.29895 5.38256 2.71676 0 -0.0367469 -0.139564 -1.74344
825 1 7.19113 0.200521 1.93652 0 -1.69219 0.432213 -0.100435
382 1 8.30575 5.19283 4.32891 0 -0.872019 -1.20239 -0.924255
755 1 7.87082 5.26479 2.30701 0 0.665169 1.59114 0.293621
464 1 6.30193 4.52067 3.75966 0 -1.07918 1.3753 0.0657727
820 1 6.20512 5.37765 1.55119 0 0.0132527 1.61348 -0.675942
837 1 8.14114 4.7009 5.20173 0 -1.1051 1.34858 -0.14312
754 1 6.71607 0.0840436 5.2941 0 -0.30579 1.71056 -0.202166
804 1 6.71751 5.07218 5.44154 0 -0.151199 -0.281251 1.72001
43 1 6.53145 1.15282 5.21829 0 -0.553554 1.60951 -0.404285
909 1 9.92313 2.94693 4.7798 0 -1.47561 0.575964 -0.742464
297 1 8.37722 3.81298 5.07599 0 -0.515436 1.15061 1.21277
27 1 9.4846 1.0487 5.4677 0 -1.51424 0.646389 -0.591317
246 1 6.03606 1.96772 4.89982 0 -0.529541 1.60816 -0.440233
372 1 6.89147 0.39259 0.127341 0 -1.57779 0.536958 0.531653
171 1 10.1312 5.06671 0.107483 0 -0.94021 0.447698 1.40569
788 1 2.72288 9.7351 3.74378 0 -0.438661 1.33922 1.03656
643 1 1.58228 8.84194 2.74895 0 -0.474404 -0.0650164 1.68259
635 1 0.256317 8.94222 0.761941 0 -1.56433 -0.0628115 -0.780595
428 1 1.96872 9.70926 1.82308 0 -0.887383 1.41273 -0.526459
530 1 3.80489 5.67181 2.80434 0 -0.0144339 1.73923 0.187789
169 1 2.41305 10.1258 4.61348 0 -1.45787 -0.949734 -0.18169
641 1 4.87604 10.0455 4.65014 0 -0.0470073 -0.0150478 -1.7487
189 1 2.24004 5.62022 3.81116 0 -0.702695 0.252821 1.58199
294 1 5.24233 9.94581 0.920499 0 -1.57903 -0.474967 -0.584352
425 1 3.1031 5.52036 5.37675 0 -1.06073 -0.390474 -1.33521
563 1 2.26921 10.2713 0.71652 0 -1.53648 -0.78956 0.276094
495 1 0.375815 10.3462 3.33323 0 -1.51908 -0.860479 -0.111234
17 1 5.26507 8.99481 0.217913 0 -1.4 -0.930358 -0.484592
662 1 1.58844 10.1998 3.19356 0 -0.00543117 -1.72343 0.300251
330 1 0.52559 5.73959 0.679344 0 0.103804 0.473039 1.68103
996 1 0.753684 5.53644 3.40354 0 -0.181081 1.73781 0.0873787
699 1 1.54183 9.83564 4.11976 0 -1.36511 -0.495259 0.975498
523 1 5.30609 9.3109 2.12962 0 -1.55962 -0.300288 -0.733353
549 1 1.10596 8.86647 1.67596 0 -1.70563 -0.341993 0.185089
117 1 3.76416 10.0856 1.10481 0 1.53534 -0.838172 -0.0244848
893 1 4.17137 5.47226 5.06533 0 -1.55432 -0.736372 0.319752
942 1 3.26884 6.80237 0.605251 0 -0.487906 -1.48173 0.791731
346 1 1.93647 9.51497 0.046391 0 0.497783 -1.03325 1.32099
329 1 1.53297 9.37585 0.931777 0 0.559031 -0.998038 1.32356
524 1 4.42348 9.4444 0.578031 0 -0.24949 -0.627955 -1.61364
182 1 4.90964 10.0509 2.91642 0 -0.725464 1.52621 0.452548
187 1 2.82759 9.03919 3.10834 0 -0.561252 1.61358 0.376498
585 1 1.87684 8.9841 3.74723 0 0.171374 1.38862 1.05013
561 1 2.76564 8.60734 5.46314 0 1.27151 1.11093 0.457707
441 1 2.78904 9.20458 0.944589 0 0.855368 -1.51217 0.205176
720 1 1.6843 6.61172 2.80757 0 -0.566487 1.14956 1.1908
737 1 3.74902 6.28681 3.61204 0 -1.48417 0.894731 0.238944
724 1 4.57341 8.956 2.82997 0 -1.00702 1.01467 1.00834
341 1 4.2398 9.52759 2.05283 0 -1.63111 -0.398174 -0.491246
219 1 2.96054 7.30473 4.34392 0 0.985065 1.39705 0.37187
1000 1 4.97071 8.07927 2.13026 0 1.00371 -0.159772 1.42388
594 1 2.05726 9.21484 4.81602 0 -0.620759 -0.122727 1.63095
969 1 2.05787 6.24481 2.0034 0 0.656259 0.721381 1.45235
553 1 5.09069 7.22145 4.06052 0 0.1229 0.804436 -1.54861
899 1 2.21635 7.3961 3.34884 0 -1.44632 0.891645 -0.416581
888 1 2.7962 6.64012 3.65683 0 -1.39314 1.04984 0.131906
284 1 2.41354 8.84547 2.0365 0 -1.14137 1.04563 -0.815063
913 1 2.387 8.18064 2.75145 0 -1.02329 1.41626 0.0865345
301 1 3.07522 8.87851 4.46936 0 -1.66299 0.540952 -0.0471654
318 1 4.99764 7.07534 3.14868 0 1.19564 -0.484988 -1.18136
315 1 4.36446 7.87014 2.93595 0 -0.568514 -0.752968 1.47317
362 1 4.19042 8.29013 1.61117 0 0.878929 -0.766789 1.30381
839 1 4.9832 7.52997 1.18312 0 1.16247 1.25148 -0.377957
814 1 0.952915 7.56523 2.28451 0 -0.378816 -1.64171 0.470827
511 1 0.652983 8.49961 2.50302 0 0.546089 -1.58103 0.512363
9 1 0.551147 9.53409 4.25568 0 -1.49654 -0.2814 0.861155
323 1 4.48854 6.12756 4.31576 0 -1.04993 0.909633 -1.0633
288 1 2.67872 7.21525 2.44504 0 -0.319245 1.62905 0.551975
69 1 0.392663 6.5035 3.48304 0 -1.43295 0.940364 -0.350404
204 1 3.14651 8.18479 3.66868 0 0.994977 0.537856 -1.33459
73 1 3.37461 8.91906 2.23572 0 -1.41286 0.589561 0.846555
884 1 3.16331 8.21156 1.28843 0 1.13998 -0.175679 1.31529
444 1 4.26555 7.22527 1.70184 0 1.26884 -1.0556 -0.579771
114 1 4.74975 5.68971 0.547939 0 0.0263333 -0.165013 1.7414
960 1 1.14285 7.34283 5.29036 0 0.377683 -0.886654 1.46
113 1 2.70628 6.12099 0.120854 0 -0.788673 -0.0544055 -1.56059
741 1 5.29271 6.46898 1.4603 0 -0.848346 0.056089 -1.52891
152 1 3.3758 7.94841 2.39274 0 0.0717159 1.71162 -0.354429
632 1 2.29414 7.83392 0.993117 0 1.56348 0.488376 0.614334
710 1 1.62733 8.09339 1.87226 0 -0.822417 1.12907 1.0532
748 1 2.04005 8.48349 0.259237 0 -0.862894 -0.974568 1.16877
148 1 0.947941 6.09044 2.32915 0 1.58281 -0.540316 -0.513014
138 1 0.941391 9.29295 3.4004 0 -1.04674 0.836186 1.12495
196 1 3.01811 10.052 1.7336 0 0.189315 0.903049 -1.48629
149 1 2.94466 6.29908 4.7576 0 1.63374 0.597603 -0.184867
262 1 3.72722 9.61059 2.9646 0 -0.724311 1.56323 0.303465
366 1 3.19028 7.24879 1.53348 0 1.48543 -0.245284 -0.890916
29 1 1.63393 6.10415 0.23916 0 -1.08855 0.678954 -1.18932
546 1 3.39969 6.20818 1.80082 0 -1.03635 1.40284 -0.135744
917 1 4.51712 8.33339 0.2998 0 0.126765 -1.54695 -0.807016
375 1 1.01885 6.98504 0.750333 0 0.526241 -1.53744 0.647881
780 1 3.48279 6.6967 2.72659 0 0.251776 1.73106 0.0210954
732 1 4.92112 6.51108 2.41754 0 0.294658 -1.00377 -1.40215
87 1 3.76222 9.08537 1.29236 0 1.4059 -0.977263 0.358876
134 1 0.0322849 6.93374 2.30125 0 -1.29564 -0.061837 1.17383
805 1 1.67731 7.17802 1.50826 0 0.678479 1.58831 0.278088
364 1 1.21636 7.97193 0.473438 0 -0.929479 -0.793622 1.25165
762 1 1.23883 7.16833 3.46864 0 -1.13635 0.871725 1.00459
81 1 4.89202 8.8508 1.35309 0 0.438791 -1.25368 -1.13849
115 1 1.14406 6.17003 4.01325 0 -0.198471 1.71351 -0.291363
651 1 1.56107 8.11488 3.48617 0 -0.0661786 0.632962 1.62953
451 1 0.718597 7.18802 4.36846 0 0.525361 1.15828 1.20116
142 1 1.19151 8.57185 4.37919 0 -0.857771 -0.446162 1.45793
764 1 2.26872 7.66364 5.1284 0 0.660401 1.43868 0.74463
818 1 1.99664 7.00314 4.26429 0 1.43538 0.905909 0.423568
92 1 0.6746 7.81256 1.3951 0 -0.201765 -1.52324 0.836319
409 1 5.04029 5.99664 3.33376 0 -1.02351 -1.19842 -0.759342
611 1 2.52145 5.98628 2.86078 0 -0.0784323 1.19182 1.27821
670 1 3.90298 7.70629 0.733408 0 -0.713567 -0.678243 1.4461
416 1 4.04462 7.43573 3.68941 0 -0.616471 -1.45106 0.758151
4 1 3.56416 8.5276 0.306624 0 1.07139 -1.35948 -0.253651
664 1 2.45298 10.0026 2.65918 0 1.47465 -0.0825279 -0.937542
423 1 1.82165 5.89532 4.74387 0 0.138718 1.59441 0.706415
395 1 0.455569 7.83053 3.17492 0 -0.719756 1.22322 1.02278
235 1 5.02608 9.35952 3.9256 0 1.43733 0.504587 -0.860163
769 1 0.793497 9.49329 0.221097 0 0.651445 -1.15834 1.13766
990 1 1.30143 6.22085 1.30709 0 1.71698 -0.327391 -0.0720461
582 1 3.12499 9.48951 0.0384892 0 -0.523001 0.0839372 1.66728
400 1 3.7306 9.84334 4.1727 0 0.641119 1.04374 -1.24899
926 1 4.38306 6.10663 1.46336 0 -1.5068 -0.877008 -0.144253
921 1 3.45743 7.97476 4.78447 0 1.17148 0.565607 1.16967
460 1 4.03531 8.73755 3.64249 0 -1.72695 0.15535 0.232214
571 1 4.87612 7.43746 0.0288455 0 0.193485 -0.120631 -1.73448
79 1 2.64388 6.08601 1.13352 0 -1.73583 -0.12225 -0.179826
509 1 3.70995 5.68773 0.806089 0 -1.7043 -0.298832 -0.257815
817 1 4.36448 6.80991 0.649208 0 0.134565 0.636339 -1.624
988 1 0.827854 9.85009 2.17874 0 0.961856 -1.11033 -0.94995
53 1 0.40566 10.0314 1.20999 0 -0.338744 -1.57742 0.676304
728 1 0.0122149 9.28958 1.7654 0 -1.15125 -1.18014 -0.585063
860 1 0.636013 9.13848 5.16745 0 -0.105463 0.399929 1.6998
331 1 5.03095 8.36983 3.42561 0 -1.40753 0.23711 -1.01145
136 1 0.287471 6.22492 4.68727 0 1.68774 0.381216 0.258079
982 1 0.37537 6.5884 1.40966 0 1.02355 -1.23849 0.692017
287 1 0.040117 5.73631 2.16205 0 1.36397 0.204322 1.07622
461 1 0.0138657 9.36419 2.74883 0 1.6765 -0.229923 -0.44372
412 1 0.252271 8.58516 3.74523 0 -0.983624 0.156385 1.4382
1002 3 4.90694 5.67289 4.90005 13.626 0 0 0
241 1 0.334606 8.08944 4.69016 0 0.487637 0.0989103 1.67715
980 1 3.88115 6.92123 4.63885 0 -0.421777 0.991286 1.37835
156 1 4.11975 9.66975 5.25309 0 -0.716978 0.872116 -1.33632
368 1 4.5224 7.6449 4.80968 0 1.53737 0.171087 -0.817086
934 1 0.968301 6.15411 5.45277 0 0.156407 0.670815 1.60809
54 1 2.30109 8.05509 4.20555 0 1.74872 0.0318559 -0.0371325
763 1 1.44267 10.0442 5.18776 0 -0.552347 1.65376 -0.142844
360 1 2.03435 7.08769 0.394772 0 0.144863 1.73893 -0.124674
864 1 3.31023 7.13374 5.38734 0 -0.0421781 -1.38301 1.07047
84 1 4.4565 8.83662 4.65157 0 -1.3316 1.05022 -0.42928
584 1 5.16504 8.20354 4.42546 0 0.200406 1.643 -0.566377
689 1 2.84643 7.52872 0.124786 0 1.51832 -0.717373 -0.490373
312 1 1.9778 6.70141 5.32107 0 1.22195 1.21545 0.299834
527 1 4.78783 6.34716 5.30145 0 0.302183 1.61649 0.596707
758 1 5.44909 6.24414 4.57218 0 0.989602 1.39982 -0.348688
45 1 0.0883552 7.99758 0.195767 0 0.72375 0.2428 -1.57405
902 1 6.26007 9.85198 0.436691 0 -1.08904 1.12773 0.776275
16 1 6.52839 10.1937 2.97929 0 0.306813 1.40896 0.990499
402 1 9.98827 10.2945 4.02303 0 -0.943993 1.45084 0.253663
490 1 10.1304 10.2935 1.94725 0 -1.46682 -0.368307 0.879305
705 1 8.60242 10.0887 4.61045 0 0.595284 0.785572 -1.44531
787 1 5.68209 10.0804 3.73401 0 1.25767 1.19214 -0.239725
380 1 6.72564 9.93803 4.08583 0 1.58345 0.433703 -0.604133
161 1 8.15215 9.50025 3.83055 0 -0.344977 -1.58695 0.650375
467 1 9.16526 9.81096 3.4352 0 -0.555347 -0.369348 -1.61727
981 1 5.92403 9.19391 1.1787 0 0.0167641 1.41198 1.03268
709 1 6.03175 7.00707 3.53626 0 -0.383364 -1.20991 1.20397
636 1 6.22474 7.77403 4.21586 0 0.792277 1.21113 -0.982788
940 1 5.70914 7.78833 2.76297 0 0.994309 -0.936788 1.09278
900 1 6.24195 6.86913 2.4669 0 1.65564 0.262469 -0.500374
270 1 5.70166 5.98127 2.16399 0 0.523688 1.53411 -0.657756
264 1 5.66409 7.42365 4.9372 0 0.341389 0.487552 -1.64504
933 1 10.0102 9.36589 3.69804 0 -1.07671 1.31318 0.420326
811 1 7.34464 9.52398 4.72525 0 1.24625 0.712343 0.999911
283 1 6.34068 9.63972 2.18632 0 -0.714456 1.39436 0.778278
347 1 7.43418 6.02724 0.646587 0 1.00647 1.38452 0.361275
832 1 7.85203 9.70215 1.62311 0 -0.59116 1.63999 -0.14614
968 1 6.78428 7.69571 2.73339 0 -0.0367166 1.58822 -0.732544
486 1 10.1621 7.95177 2.05869 0 -1.09495 1.36306 0.0595855
626 1 7.16595 7.23497 3.4883 0 -0.886081 1.26733 -0.818006
14 1 6.66201 8.79586 0.654466 0 -1.55789 0.146873 0.782184
144 1 8.08009 9.67929 2.55036 0 0.226317 0.422642 -1.68243
484 1 8.21677 6.68461 2.53265 0 -0.0899251 1.53476 -0.834765
845 1 8.1437 6.05719 1.70737 0 0.57208 1.65299 0.0270824
340 1 10.1132 9.90562 5.04849 0 -1.2554 -1.11147 0.498999
999 1 5.58768 9.22678 3.05717 0 -0.333925 0.770866 -1.53449
122 1 5.59471 6.14214 0.391376 0 -0.597767 -1.19969 -1.1242
140 1 7.41067 7.8916 1.87239 0 -1.24847 1.20106 -0.243258
233 1 8.88841 6.94443 0.890248 0 0.722366 -0.327509 -1.55927
463 1 9.47705 9.64639 2.45773 0 0.891535 -1.44128 -0.43392
457 1 9.42686 6.4592 1.81511 0 -0.645138 -1.6115 0.217424
157 1 9.91503 8.88736 4.57773 0 -1.1675 -1.28566 0.210791
154 1 7.05835 8.22755 3.63683 0 -0.0137173 1.2529 1.22084
627 1 10.3296 6.65674 0.218314 0 0.0861581 0.922247 -1.48406
521 1 9.86068 6.82388 4.2934 0 -0.238504 -0.794597 1.54017
371 1 8.60151 6.47647 4.59812 0 0.360353 -0.0274956 -1.71166
337 1 10.1189 8.07767 1.1066 0 0.711044 -1.2745 -0.964604
908 1 7.23403 6.26284 2.94184 0 -0.222336 1.3354 1.108
184 1 7.16764 5.76599 1.69975 0 0.651781 1.58071 0.370056
220 1 6.99536 8.59326 2.37324 0 -0.395561 1.70287 0.0646169
244 1 6.88509 9.4909 1.37818 0 -0.0771909 1.02095 1.41848
929 1 6.02646 8.56022 1.99841 0 -0.783323 0.055944 1.56323
712 1 7.56287 10.1745 3.38703 0 1.16308 0.651692 -1.13267
492 1 10.0598 7.69283 3.88875 0 -0.341762 -1.5263 0.783593
408 1 8.58844 8.92185 0.807701 0 0.144302 1.5887 0.718062
747 1 8.48235 5.85705 0.563168 0 0.86499 1.34856 -0.702553
273 1 7.76159 8.69475 4.23418 0 -0.319213 0.0804962 1.71815
957 1 7.50073 7.32178 4.69268 0 0.893422 1.15597 -0.962255
313 1 8.88592 5.88862 2.41372 0 -0.367651 -0.719517 1.55162
379 1 6.04176 8.46266 3.51198 0 -1.49935 0.436311 -0.788657
566 1 8.8203 9.46736 1.73264 0 -1.09624 -1.23763 0.571771
749 1 8.14006 7.87907 0.861384 0 0.0563027 1.3979 -1.05028
481 1 7.04164 9.27407 3.13911 0 0.432995 1.25444 1.13986
426 1 9.19598 7.53061 2.26424 0 -0.0562671 -0.739247 -1.58453
701 1 9.50129 8.62468 1.78902 0 -0.912858 -1.47354 -0.236133
991 1 8.02578 7.65656 3.84102 0 0.0384178 1.31484 -1.15331
779 1 9.17978 6.3505 3.71755 0 1.40952 -0.451954 0.932409
674 1 8.99239 7.96786 3.44803 0 0.650386 -0.629252 -1.49714
193 1 8.94777 8.6236 4.26375 0 0.167363 -1.65247 -0.549298
619 1 9.80456 6.19553 2.85091 0 -1.46758 0.417982 -0.855518
433 1 9.91014 7.04292 1.11989 0 1.05938 -1.22586 0.659838
141 1 7.93657 7.68286 2.8141 0 -1.32905 1.06172 -0.408379
815 1 9.16391 7.77574 1.32121 0 0.519713 -0.134145 -1.66502
281 1 9.96312 8.52802 2.97901 0 0.8393 1.39166 0.647493
932 1 6.05409 6.01856 3.37885 0 -0.695963 -0.609532 -1.48476
128 1 7.49545 8.34337 5.16183 0 -1.10533 1.01448 0.899707
887 1 6.00591 9.73357 4.77602 0 0.371752 1.60776 -0.580789
648 1 9.58272 9.40428 0.969418 0 -1.71471 0.0461505 -0.343551
120 1 7.04325 7.00685 1.9697 0 0.311959 0.677971 -1.58223
384 1 7.80555 6.90345 1.02561 0 0.585455 1.57445 0.488635
650 1 7.89229 8.63651 3.10246 0 -0.60132 1.32347 -0.973267
417 1 8.92813 8.69801 2.72454 0 -1.11996 -0.418942 -1.27694
937 1 8.27815 9.14891 4.97753 0 1.48923 0.816196 0.42002
771 1 7.91763 6.68073 3.86548 0 -1.121 1.34273 -0.0288649
191 1 6.65957 8.91737 4.36198 0 -0.160072 1.74166 0.0375638
799 1 9.59353 7.19631 3.05409 0 -0.802898 1.55226 0.0790319
798 1 7.54138 8.65687 1.13881 0 -0.839699 1.44207 0.525106
70 1 9.52082 6.14622 0.579191 0 0.966195 0.619747 -1.32014
401 1 9.48476 7.57258 0.300054 0 1.73616 -0.012829 0.214434