ITEM: TIMESTEP
0
ITEM: NUMBER OF ATOMS
1002
ITEM: BOX BOUNDS pp pp pp
0.0000000000000000e+00 1.0346399999999999e+01
0.0000000000000000e+00 1.0346399999999999e+01
0.0000000000000000e+00 1.0346399999999999e+01
ITEM: ATOMS id type x y z q mux muy muz
665 1 2.34205 2.86203 2.39319 0 -0.524489 1.03426 1.30981
73 1 1.47564 3.08989 2.98287 0 -1.25316 -0.930646 0.789865
755 1 2.82939 1.32864 2.19628 0 0.274952 1.05174 -1.37064
543 1 1.06406 1.44432 2.63869 0 0.610539 -1.59888 -0.362271
11 1 3.81649 1.95213 1.50108 0 -0.25804 -1.7268 -0.10942
569 1 1.97424 3.86123 3.84458 0 -0.724798 1.58473 0.153965
152 1 4.14987 3.04782 4.61485 0 1.14309 -1.14215 -0.670257
429 1 0.366547 2.69172 4.46093 0 -0.142975 -1.73114 0.20762
225 1 4.16185 3.73816 2.36896 0 -0.833781 -0.471551 -1.46385
422 1 2.43799 3.45454 1.37167 0 -1.20853 -1.12772 -0.572812
81 1 2.37128 4.25679 4.73104 0 1.30956 -1.05504 0.482029
94 1 5.25846 4.10666 3.29116 0 -1.55121 -0.804183 0.0862018
977 1 0.982551 3.82184 4.18384 0 -0.815874 1.09443 -1.09407
866 1 3.19963 4.888 4.09659 0 -0.183272 0.0336524 -1.73945
953 1 1.62741 2.50454 1.42446 0 -0.961586 1.31605 -0.635427
646 1 0.967893 5.13115 2.38452 0 0.621376 1.56473 0.475288
551 1 1.45727 2.60997 4.12665 0 -0.322336 1.05902 -1.35461
632 1 0.645814 3.05565 1.62566 0 0.291629 0.364367 1.686
664 1 3.11992 3.91188 2.58184 0 0.730689 0.305948 1.55977
748 1 1.68352 3.43519 4.77998 0 -0.470671 -1.26936 -1.10797
865 1 3.09697 2.60925 1.88209 0 -1.39469 0.261362 1.0232
469 1 0.0517045 4.92112 2.6979 0 0.797026 0.932706 -1.24708
647 1 2.33927 1.83 4.05257 0 1.56092 0.103617 0.783073
656 1 5.3665 5.25262 2.95845 0 -0.740438 1.03094 1.20387
82 1 2.75985 1.89149 1.21463 0 -1.29096 1.01327 -0.605897
109 1 1.95341 3.99993 2.7124 0 -0.501985 0.0445433 1.67524
981 1 2.57123 2.66564 0.638427 0 -0.089368 0.515564 -1.66931
954 1 0.408381 2.24838 2.93556 0 -0.336705 -1.70768 -0.175669
106 1 0.666524 3.83008 2.48751 0 0.565422 1.29782 1.02779
947 1 3.5046 2.92182 0.825763 0 -0.628925 0.419183 -1.5777
1002 3 3.74236 2.77242 1.55072 13.626 0 0 0
965 1 5.40844 0.324521 2.67714 0 1.07261 1.34529 0.316391
132 1 4.42089 3.04005 1.318 0 1.48839 0.888376 -0.236389
550 1 3.37487 3.51271 1.63381 0 -1.24824 1.20391 -0.230026
710 1 2.95193 3.74472 4.27872 0 -0.215261 -0.421227 -1.68423
761 1 2.68144 4.38767 1.53871 0 0.179968 -1.0877 -1.35827
413 1 3.08346 2.1939 3.04781 0 1.37106 -0.0411293 1.08578
131 1 3.9749 2.7389 2.36818 0 0.106438 -0.806749 1.54862
1001 2 4.05319 2.5229 3.41244 -13.626 0 0 0
560 1 2.4067 2.89638 3.51607 0 -0.462664 0.169906 1.67853
235 1 4.14361 0.400694 3.52869 0 -0.188112 1.37013 -1.07133
1 1 2.02858 5.02629 5.29579 0 0.138711 -1.60427 -0.683716
388 1 4.34521 3.66037 5.46508 0 1.35691 -0.832621 -0.725218
946 1 1.16069 2.44672 2.27247 0 0.953545 -1.15915 0.898626
945 1 3.38223 3.38429 3.4671 0 1.3552 -0.992106 -0.489445
568 1 3.06313 0.371592 2.61408 0 0.523408 1.49409 -0.744414
627 1 1.08358 1.72898 3.59485 0 1.66327 0.182519 -0.510521
12 1 0.348504 4.75584 3.7543 0 -1.30421 1.08544 -0.425751
795 1 4.62247 1.15631 3.10356 0 1.22167 0.543704 -1.12797
948 1 1.8665 2.10913 3.09352 0 1.52475 -0.731417 0.447863
723 1 3.2216 1.15292 3.25167 0 -1.00761 1.39135 0.330549
929 1 4.04332 0.242785 5.30173 0 -0.507641 -1.37925 -0.94888
684 1 0.373251 3.92306 0.735576 0 -1.64817 -0.513029 0.284157
138 1 5.01289 4.73546 2.0848 0 0.411212 1.60318 0.566671
963 1 1.53292 1.04193 4.29053 0 1.69943 -0.17294 -0.377376
961 1 3.88164 1.31219 2.371 0 0.653646 -1.34438 0.908735
603 1 3.26161 1.08723 1.08087 0 -1.73532 0.0777422 0.207444
621 1 5.3754 3.8987 5.42655 0 0.305426 0.820104 -1.51478
203 1 4.88918 2.15608 3.91439 0 -1.24373 0.641421 -1.04981
124 1 5.43377 4.79365 1.08674 0 1.6886 -0.324234 0.322347
765 1 0.937324 2.95036 0.598995 0 -0.833016 1.36745 0.704666
889 1 0.84785 1.67803 1.41577 0 -1.56259 0.479836 -0.623275
633 1 4.44088 1.14712 5.04696 0 -1.52233 -0.829983 -0.232482
692 1 4.06491 1.43656 3.88026 0 0.318042 0.0706552 -1.7188
271 1 2.16305 1.16032 3.32828 0 -1.14709 -0.655225 -1.14685
778 1 1.85662 0.648581 2.46547 0 0.911959 0.119181 -1.48813
33 1 4.32424 0.946211 0.591288 0 -1.52477 -0.411181 -0.752596
387 1 3.52944 0.0905634 0.00721819 0 0.731613 1.18728 -1.05618
263 1 1.392 4.6754 0.438186 0 -1.05293 0.60909 -1.25728
392 1 4.31885 4.36979 3.12035 0 -1.37041 0.0337385 -1.08684
188 1 1.76583 5.01113 2.91467 0 0.96515 0.937052 -1.1184
249 1 1.52159 3.37501 2.047 0 -0.59706 0.161477 1.63641
852 1 3.21656 2.40604 4.05223 0 1.54893 -0.0539437 -0.811352
976 1 1.79113 1.51842 1.80375 0 -0.802223 0.948181 -1.23199
133 1 2.96565 1.13192 4.24191 0 -0.229299 -1.68137 0.425241
515 1 4.08982 1.9827 4.71119 0 -0.355602 -1.09726 -1.31528
895 1 4.07412 3.56935 0.200108 0 1.59396 -0.705723 0.14708
596 1 4.77457 3.21923 3.1043 0 -1.01624 -1.31643 0.542839
134 1 3.33316 4.42178 5.01957 0 1.01665 0.980758 -1.03196
143 1 4.73796 3.91129 1.36487 0 0.626393 1.63072 -0.0937906
625 1 0.974468 0.0393106 2.67768 0 1.39273 -0.527778 -0.917684
135 1 0.970392 0.665101 1.77714 0 -0.483921 0.767348 -1.49579
893 1 4.76992 1.64684 1.83639 0 0.924575 1.40084 0.493152
195 1 5.02516 2.0605 4.92489 0 -1.31337 -1.13743 -0.204228
313 1 0.643048 3.46075 5.05803 0 -0.964013 -0.0211341 -1.45967
389 1 2.28402 0.972714 0.972607 0 -1.73607 -0.064609 -0.205603
476 1 4.67652 0.206261 4.39856 0 -1.48625 0.79355 0.470891
65 1 1.58062 4.43218 1.78413 0 0.0495761 -0.559402 1.65681
855 1 3.17856 4.10743 0.752277 0 -0.195539 -0.310262 -1.71053
628 1 3.638 1.67193 0.422841 0 -1.10988 0.979522 0.932252
70 1 3.66426 0.274345 4.43391 0 -1.10798 -0.453849 -1.27546
353 1 1.71659 1.68935 0.750291 0 -1.68708 0.144977 0.439482
998 1 4.05872 4.23925 4.28311 0 -1.20249 -0.908074 -0.888716
310 1 1.13754 4.39751 3.31993 0 -0.48633 1.58667 0.553503
452 1 0.67421 3.05246 3.56069 0 -0.732003 -1.2532 0.97676
896 1 1.17067 0.743583 0.841578 0 -0.578893 -1.11311 -1.21912
488 1 0.808459 1.71997 4.54762 0 1.34894 -1.09538 0.20227
440 1 0.139195 2.16057 1.98892 0 -0.645822 1.57685 0.396067
160 1 0.161886 0.740707 2.88913 0 0.780674 0.420698 1.50797
27 1 0.60733 0.909381 3.80395 0 1.39436 1.05593 -0.0343295
712 1 3.71964 5.44239 4.89076 0 -1.27173 0.65102 1.00959
93 1 4.49855 0.0333322 2.68066 0 1.67604 0.455657 0.208993
53 1 1.74348 0.277136 3.66398 0 -0.569793 -0.68353 -1.50616
586 1 4.45793 0.738923 1.82642 0 0.699774 1.6003 -0.0987479
316 1 2.75405 0.188736 3.89055 0 -1.30387 -0.826645 -0.822787
848 1 4.64452 5.18504 3.73174 0 -1.03503 -1.38379 -0.272473
502 1 2.27967 4.96327 3.76702 0 -0.872654 1.46749 -0.381251
391 1 2.26225 4.1982 0.452279 0 -1.55233 -0.154518 0.791704
565 1 2.33231 0.211445 1.75917 0 1.5295 0.288529 -0.798617
57 1 3.9626 4.51307 1.33969 0 -0.00146093 -0.671039 -1.61558
620 1 2.46183 2.79739 4.62691 0 1.34252 -1.02198 0.462175
399 1 1.81695 1.65492 5.41044 0 1.34933 -1.04904 0.373141
785 1 0.756002 0.641912 4.88356 0 0.381715 -1.65432 -0.421824
829 1 3.85416 4.89876 0.343113 0 0.803332 1.40054 0.673456
36 1 0.37694 1.43063 0.569791 0 -1.60945 -0.633052 -0.263264
127 1 2.22435 0.592409 4.89944 0 -0.0850035 -1.08472 1.36988
13 1 4.82216 2.18542 0.977349 0 -1.47763 0.779937 -0.518371
44 1 4.78775 2.10561 2.76318 0 -1.33387 0.978086 0.569683
398 1 0.0153102 4.06955 4.48328 0 -0.987286 1.36601 0.468706
753 1 5.12004 3.6302 4.13757 0 1.61908 -0.185346 0.636094
322 1 0.385309 5.09501 4.71583 0 1.21532 0.142391 1.25025
24 1 0.172621 0.29701 0.678577 0 -0.880384 -1.09435 1.04294
170 1 5.3234 0.682717 3.64522 0 -0.479583 -0.227822 1.66688
229 1 5.16035 2.80337 1.96962 0 1.70589 0.300057 0.245602
826 1 5.23715 1.23713 0.894818 0 -0.716219 0.253502 -1.57581
740 1 0.784694 5.33579 1.16496 0 1.43265 0.160537 -0.991025
183 1 4.98532 4.09705 0.249236 0 -0.909027 1.17753 -0.92059
350 1 3.75433 4.82298 2.24435 0 0.639154 -0.289906 -1.60245
552 1 3.14448 5.26258 3.11089 0 -1.32209 0.350825 -1.0906
454 1 1.23045 5.03134 4.03163 0 -1.51688 0.871427 -0.00888241
714 1 2.67033 4.87701 2.39104 0 1.00591 -1.07342 -0.946733
790 1 3.50484 0.248171 1.71463 0 1.39638 0.758114 -0.731983
504 1 2.70267 5.15354 0.699024 0 1.50115 -0.558416 -0.703641
609 1 4.14338 5.41075 2.92024 0 -1.35125 -0.101435 -1.10646
709 1 1.84467 5.44766 2.01962 0 1.21824 -0.530225 -1.13805
688 1 1.60875 0.03922 5.43127 0 -1.56069 0.744149 0.266271
858 1 0.0728042 5.30039 1.82473 0 0.825301 0.585544 -1.42703
670 1 4.58217 5.29416 1.02744 0 1.38469 -0.390453 0.995283
468 1 0.517455 5.43065 0.31348 0 -0.41667 -0.188298 -1.68859
884 1 2.89128 1.9414 4.96777 0 1.3669 -1.09157 -0.0218036
68 1 1.9771 0.0994006 0.632779 0 1.62881 -0.636886 0.042056
285 1 1.3646 4.4258 4.92766 0 0.668783 -0.959183 -1.30119
531 1 1.37069 3.78115 1.05997 0 -0.392657 1.24307 -1.16662
290 1 0.312364 1.32558 5.40601 0 -0.794374 0.159979 -1.55041
906 1 4.20959 2.64994 0.257038 0 0.312971 -0.965102 -1.42514
546 1 3.32393 3.21139 5.01372 0 0.990889 0.76134 -1.2243
9 1 3.19211 1.01774 5.32454 0 0.131537 -1.41235 1.0239
819 1 5.19822 3.10068 0.57215 0 1.70061 -0.401382 0.0849023
358 1 0.591728 4.43062 1.66445 0 1.35144 1.10531 -0.110945
130 1 4.86269 4.59205 4.79805 0 0.057044 -1.37075 -1.08544
289 1 6.07938 4.30473 1.71061 0 -0.730475 -0.1967 1.57738
877 1 5.66053 2.42968 3.15135 0 0.436204 1.0454 -1.33314
266 1 5.5176 1.54722 4.23477 0 -0.772499 1.39816 -0.713299
55 1 5.47264 3.76161 2.30704 0 -1.2953 0.947559 0.696226
703 1 6.08966 4.59399 3.64438 0 -0.513764 -1.14273 -1.22091
90 1 5.5258 5.25964 4.07037 0 -0.695976 -1.01941 -1.23969
803 1 5.84442 2.22494 5.45731 0 -1.56925 -0.760062 0.141987
989 1 6.03084 4.38112 4.81609 0 0.98227 0.136968 -1.44111
485 1 5.54637 0.838686 5.00507 0 -0.302699 1.57805 -0.691752
994 1 10.0004 2.14094 1.04616 0 0.495414 1.46048 0.825809
99 1 5.99207 0.286885 4.20462 0 1.71982 0.298974 0.114967
934 1 5.88554 5.3703 1.95288 0 -0.414076 0.683445 1.55623
618 1 9.80547 3.21524 0.455859 0 -1.4517 -0.637317 0.739452
280 1 10.2136 3.76344 3.42606 0 0.517146 -1.4688 0.797232
139 1 5.81342 3.25647 1.33448 0 0.922788 1.41169 0.464742
380 1 6.61936 5.04233 5.24563 0 -1.33089 -0.541991 -0.997683
479 1 9.48583 0.0831767 3.11833 0 0.77083 -1.32334 0.845568
924 1 9.56398 3.57411 1.43239 0 -0.224694 1.65058 -0.534315
211 1 6.79917 2.28807 1.49995 0 -0.174505 1.2629 -1.19793
304 1 5.78736 0.956156 1.72972 0 -1.12887 1.25143 -0.469019
293 1 7.15005 5.29271 0.23674 0 1.30698 -0.467735 1.06463
332 1 6.05891 3.47147 3.19538 0 -0.490746 0.825088 -1.46246
991 1 6.18844 4.65583 2.6038 0 0.908954 0.99887 1.11196
667 1 9.28816 3.61356 3.73784 0 0.993342 0.185994 -1.42796
371 1 5.78171 2.10679 1.34753 0 -0.708498 0.167234 -1.59074
274 1 9.89045 4.15479 2.28992 0 1.10987 0.562278 1.22981
491 1 9.37663 1.58138 1.76034 0 1.17102 1.28177 -0.214889
278 1 9.53859 5.15105 2.19099 0 1.14231 1.10602 -0.729553
578 1 6.46335 1.76537 4.88957 0 -0.319674 1.71874 -0.0643482
219 1 6.13537 2.90558 2.30083 0 1.67602 0.424268 0.267111
982 1 9.45603 4.48137 3.26202 0 1.71898 0.305041 -0.111674
185 1 7.86068 3.8289 2.53452 0 1.12706 0.809483 1.06531
577 1 10.0428 4.50392 1.13026 0 1.13192 0.00360306 1.33385
92 1 9.88695 2.76795 3.65022 0 1.02723 -1.37834 -0.324615
793 1 7.39381 2.28089 2.39736 0 0.475825 0.732369 -1.51579
720 1 8.70884 3.05488 5.33636 0 1.57061 0.182853 -0.748435
366 1 9.03269 2.57481 1.70425 0 -1.2951 0.614944 -1.00247
728 1 7.12244 3.18906 2.24821 0 0.797716 1.49505 0.434599
911 1 7.36714 2.40385 4.2966 0 0.949897 -0.920798 -1.14465
724 1 6.8991 0.269075 3.83584 0 0.875535 -1.21583 0.903102
682 1 7.67898 5.33515 3.80192 0 1.03908 1.14428 0.819353
939 1 6.14398 3.64354 4.14433 0 1.11022 -1.00665 -0.902479
210 1 9.03847 2.15495 4.01261 0 1.27926 0.857264 -0.830061
818 1 6.36797 1.80978 2.22879 0 0.818683 -0.0741771 -1.54423
287 1 7.42163 4.2296 3.67455 0 0.204784 0.703046 1.58877
199 1 9.97518 1.63187 2.77957 0 -1.29165 -0.0565496 1.17849
495 1 6.69239 2.39641 3.15732 0 1.39238 -0.88929 -0.575198
791 1 6.20104 0.424391 0.745806 0 -1.68612 0.23803 -0.400914
129 1 9.12855 1.47857 3.2407 0 -1.48396 -0.815186 0.440145
928 1 7.09337 1.45274 3.27088 0 1.00835 -1.30455 -0.584618
920 1 6.85127 5.377 2.05023 0 1.08848 -0.294358 1.33752
615 1 8.93251 0.796456 2.43549 0 0.803864 0.178369 1.5435
297 1 8.79703 1.31186 0.780269 0 -0.0963098 -0.528675 1.66482
669 1 6.25494 2.41243 4.027 0 -1.21303 0.368837 -1.20537
810 1 9.93043 2.98881 2.0892 0 -0.221755 1.34435 -1.09725
269 1 8.81981 3.31458 0.692767 0 -1.21405 1.10877 0.597601
91 1 6.07167 0.0109461 5.41717 0 0.117351 1.74546 -0.00399337
608 1 9.17833 2.54369 2.7687 0 0.795561 0.341792 -1.52009
767 1 8.33586 1.3985 1.73825 0 0.713024 -1.58866 -0.167844
617 1 7.41037 1.41558 4.548 0 -1.45119 -0.303129 0.928742
224 1 5.59791 1.368 2.74368 0 1.5405 0.820833 -0.116118
338 1 8.40702 4.13676 3.37497 0 0.941569 -1.46851 -0.131686
897 1 8.38654 2.86926 4.39994 0 1.08544 -1.35715 0.200879
112 1 7.30104 0.378387 0.951057 0 -0.607904 1.20043 1.11795
430 1 9.78746 2.03403 5.17836 0 -0.593101 1.6434 0.0886375
526 1 8.71802 4.58289 2.32936 0 1.36228 1.09324 -0.0971089
169 1 7.85349 2.25582 1.53943 0 0.26138 -0.800476 -1.5334
750 1 6.95602 3.17798 3.96988 0 -0.628662 -1.5342 -0.558043
503 1 8.14724 2.04712 3.49554 0 0.0982401 -0.78356 -1.56102
722 1 8.47596 1.75838 2.59307 0 -0.272267 0.110731 -1.72453
355 1 7.45201 1.25106 2.4478 0 0.029544 0.655412 -1.62172
857 1 10.334 1.91479 3.78926 0 0.3629 -1.4839 0.852494
779 1 8.31966 3.11075 3.1233 0 0.349364 -1.58727 0.647246
155 1 7.63122 2.61379 0.384444 0 -0.26909 1.16738 -1.27484
147 1 9.10182 4.26622 0.621957 0 1.24299 1.20411 -0.25592
962 1 8.54927 3.78114 1.71529 0 -1.05568 1.39398 -0.0525768
956 1 9.31216 3.58785 2.71442 0 0.539663 -0.274809 -1.64123
523 1 5.90979 4.02459 0.566273 0 -1.37412 0.171323 -1.06904
87 1 7.69512 3.26743 1.30616 0 -0.93933 -1.43776 -0.333014
846 1 7.74945 0.411294 4.74817 0 0.605267 1.06076 1.25253
580 1 6.68708 3.74977 5.45615 0 0.521375 -1.66986 0.0112969
980 1 6.95435 3.99639 2.82439 0 0.900868 0.86789 1.22295
704 1 7.28856 1.41958 1.23361 0 -1.60262 0.568041 -0.411514
20 1 5.53849 2.98985 4.84042 0 0.63588 -1.58205 0.391366
815 1 7.96319 0.906393 3.41298 0 -0.205654 -1.22978 1.22709
123 1 6.29471 0.763344 3.12384 0 0.612632 -0.107653 1.63508
18 1 7.39482 4.3631 4.73535 0 -0.0125128 -0.759988 1.57565
842 1 8.45755 1.28798 4.15844 0 -0.843169 1.52998 0.0928766
489 1 5.57474 2.1648 0.192188 0 -1.0301 -1.04391 -0.953706
936 1 9.65475 2.8898 4.67708 0 -0.316891 1.58069 -0.679258
362 1 8.2425 3.85442 4.39849 0 0.434792 -1.62256 -0.488534
259 1 7.17898 4.1767 1.78983 0 0.171877 -0.0598854 1.73991
328 1 7.74253 5.0149 2.64954 0 -0.109444 0.696691 1.60095
120 1 7.77819 1.51942 0.3251 0 -0.225596 1.62413 0.609676
983 1 6.64419 3.65458 1.20948 0 -0.544628 1.66191 0.0428999
938 1 7.7105 4.98728 1.38931 0 -1.65292 -0.526589 -0.225749
595 1 6.87681 3.52384 0.153441 0 -1.53677 -0.230297 0.803558
610 1 8.02851 4.94499 0.258654 0 0.71986 -1.2294 -1.01527
921 1 10.2547 0.813051 1.853 0 -0.474417 0.611956 1.56871
888 1 8.52884 2.32456 0.790075 0 0.773328 -1.07778 -1.14051
174 1 6.87767 5.06362 3.20802 0 1.44726 0.668766 0.720126
973 1 8.77996 1.68833 5.12246 0 1.14266 -1.26299 -0.39947
181 1 6.49454 1.40337 0.526449 0 -1.19008 0.559069 -1.15393
364 1 7.40493 3.31011 4.90182 0 0.331645 -0.589376 -1.6134
176 1 6.50602 2.71032 4.90329 0 0.996313 -1.02341 -1.01015
357 1 9.82111 0.995808 0.977911 0 -1.28037 -0.356213 1.13762
166 1 9.27026 5.34619 0.489555 0 0.465674 1.25758 1.1234
533 1 9.96193 5.4147 3.5612 0 -1.25052 1.18417 -0.307118
319 1 8.31841 0.249903 1.86001 0 0.618029 -1.08456 1.22563
215 1 8.29462 0.647828 0.143287 0 -0.444374 1.27928 1.10742
867 1 6.61449 0.396936 1.84655 0 -0.358708 1.58271 -0.653258
555 1 8.72315 4.99828 1.36557 0 -1.65333 -0.525497 0.225277
21 1 8.8125 5.24819 5.17066 0 -0.345573 -0.297609 -1.68891
532 1 9.08614 0.444822 1.19306 0 0.55279 -1.60027 0.440402
420 1 8.63019 5.13329 3.35747 0 0.517036 -1.56849 0.576984
2 1 6.76509 4.69949 0.984712 0 -1.08114 1.16882 0.724843
601 1 10.0036 0.267805 4.0113 0 1.2109 1.2142 -0.346203
110 1 9.00514 0.254252 3.97145 0 -0.306716 0.543215 -1.63439
797 1 7.42283 0.163231 2.73087 0 1.12204 0.843548 1.04396
891 1 8.73263 0.656817 4.92553 0 0.333885 0.761218 -1.53931
254 1 9.32617 0.31705 0.0439496 0 0.899965 1.49457 -0.12928
735 1 9.96769 3.48097 5.42965 0 0.169549 -1.22199 1.24032
308 1 6.41649 1.17112 3.99289 0 -0.366944 1.69538 -0.226833
887 1 5.70549 5.46767 5.05055 0 -1.71045 -0.0928748 -0.355163
538 1 9.52744 1.34542 4.48732 0 0.591484 -0.427225 1.58998
725 1 10.1808 4.48901 0.0222377 0 0.489133 1.52128 0.711932
760 1 9.32462 4.22016 4.6291 0 -0.194791 1.71929 -0.257889
995 1 7.55506 4.06188 0.66494 0 -1.41008 0.804181 0.652209
500 1 8.29723 4.76495 4.32612 0 -0.421495 -1.63831 -0.445729
530 1 6.56421 2.45108 0.411618 0 -0.756352 -0.835479 -1.33802
903 1 7.29207 2.23929 5.29819 0 1.5865 0.72368 0.140336
816 1 9.61921 5.13664 4.56294 0 0.808532 1.54459 0.144651
121 1 6.12886 4.95861 0.00630947 0 1.65778 0.445661 0.336994
708 1 6.72343 0.890862 5.31342 0 0.519928 1.62698 0.378172
252 1 10.1638 0.343567 5.25638 0 1.05566 -1.31337 0.470159
272 1 1.42001 9.86325 1.8948 0 1.44536 -0.982043 -0.0832195
260 1 4.1455 10.3404 0.88387 0 1.33386 0.504589 -1.01322
622 1 4.66709 5.66386 4.68496 0 -0.617917 -1.63649 -0.0221281
247 1 2.18591 9.54683 1.31895 0 1.53436 0.775131 -0.32452
58 1 2.93354 10.1528 0.827489 0 1.56017 -0.0300807 -0.790807
281 1 3.59211 9.44486 1.33115 0 -0.0578578 -0.36086 -1.7108
283 1 0.349559 6.22204 1.21187 0 1.35101 -1.01993 0.441482
177 1 2.65847 6.23016 2.03745 0 1.46825 0.933203 -0.183746
349 1 5.1291 10.162 0.802921 0 0.175841 0.660068 -1.61053
336 1 0.456214 10.2147 3.43713 0 1.63794 0.355064 -0.501485
675 1 4.8152 6.65564 4.69078 0 -1.0908 -1.12714 -0.774678
581 1 5.26523 9.92443 5.01758 0 1.47755 -0.586896 -0.729935
780 1 4.23065 9.73579 3.91072 0 -0.384623 0.849047 -1.4804
649 1 1.51011 8.79681 1.43288 0 1.04265 0.352807 -1.35971
402 1 1.78821 5.4755 0.928021 0 1.45275 -0.156369 -0.962009
356 1 1.80715 5.97711 3.80605 0 -0.204582 1.54172 0.801028
486 1 4.05456 9.61185 4.93004 0 -0.272232 -0.808579 -1.52725
251 1 4.72849 6.29897 2.85223 0 -0.718664 -0.374033 1.55049
200 1 0.448963 10.21 1.72966 0 1.56192 0.54165 0.572198
716 1 0.343949 9.02223 3.73353 0 0.417696 -0.0859244 -1.69663
184 1 3.13187 8.28149 1.52535 0 1.19134 0.473141 -1.19048
544 1 1.61712 6.37866 1.32632 0 1.14168 -0.444235 -1.24885
424 1 3.2874 9.58235 4.31264 0 -0.0258699 -0.14614 -1.74309
250 1 2.01373 9.13837 2.56788 0 0.419095 -1.69339 0.131099
886 1 3.77319 9.77327 2.33314 0 1.05526 0.717486 -1.19668
97 1 1.35313 7.28788 0.366987 0 0.0276189 -0.0752164 -1.74756
255 1 2.31509 8.98454 4.36202 0 1.16702 1.04936 -0.77286
79 1 1.0213 7.81664 4.46772 0 -1.23434 0.657731 1.05081
901 1 4.64732 9.15888 0.912077 0 0.235864 1.52782 -0.818855
396 1 3.76836 7.35251 0.564023 0 1.26439 0.99342 -0.689088
849 1 5.22086 9.39414 2.27583 0 1.00493 1.03637 -0.988152
605 1 5.17397 8.63714 3.73184 0 -0.977586 -0.616676 -1.31318
213 1 1.43896 5.79497 4.84661 0 -1.51765 -0.843175 0.2149
426 1 1.95701 9.28818 0.277931 0 -1.4117 -0.706936 0.753484
334 1 0.993756 6.10313 1.98815 0 1.71349 0.0226113 -0.351893
419 1 2.47562 5.93204 3.09565 0 -0.916754 1.4898 0.0211288
766 1 4.93294 7.43828 2.02927 0 0.281545 1.3963 -1.01562
943 1 4.62765 7.91061 4.25847 0 1.60922 0.63931 0.249213
258 1 2.90619 9.01392 0.751368 0 -0.586081 -1.57919 -0.472311
506 1 3.45746 7.27047 2.37583 0 1.36534 1.05464 0.289758
324 1 3.65497 9.52614 0.253407 0 -1.41465 0.976914 -0.323721
519 1 2.25274 8.39466 5.125 0 -0.0115626 1.33678 -1.1284
54 1 1.82628 6.83504 2.25083 0 0.873217 -1.4364 0.484403
462 1 0.78875 8.19787 3.1867 0 1.30912 -0.447465 -1.07069
746 1 3.60768 5.81556 3.95387 0 -1.58414 -0.634134 -0.385712
985 1 3.50925 6.43642 4.8563 0 0.902261 1.15559 -0.954434
443 1 1.15742 10.1019 0.981985 0 1.2438 -0.95585 -0.774407
972 1 2.2291 7.85244 4.11213 0 0.906637 -0.98497 1.12616
202 1 2.53031 9.4635 3.52944 0 -0.557753 0.331315 -1.62467
868 1 4.1145 8.29157 4.96391 0 1.63393 -0.614114 -0.116335
536 1 2.18989 7.30413 5.35671 0 0.319942 1.64005 -0.517963
964 1 1.76964 8.00014 3.22836 0 0.353215 1.17604 1.24602
161 1 3.30827 8.04383 4.23169 0 -0.0808924 1.34418 -1.11671
776 1 3.69105 6.49863 3.23089 0 -0.139336 1.22898 1.23717
545 1 2.85816 9.56755 2.12165 0 1.15293 -1.19814 0.543694
899 1 4.10549 8.68943 3.69315 0 1.38338 1.04115 0.250323
151 1 2.62213 6.10884 1.06157 0 1.74653 -0.100068 -0.00418889
102 1 2.2499 10.1607 2.84562 0 1.04466 -0.00191698 -1.40324
368 1 2.59578 7.49384 2.00808 0 1.73091 -0.126542 -0.219853
163 1 4.4992 6.57673 1.95153 0 0.193572 1.45078 0.958204
246 1 3.65251 5.87533 1.01069 0 1.66143 -0.488952 0.246957
405 1 2.08677 8.30873 2.11343 0 -0.413547 -1.54001 -0.719557
382 1 3.56727 5.93441 2.16192 0 1.50578 0.513462 0.727579
209 1 2.04694 6.56352 4.5568 0 -1.62268 -0.00468591 0.653675
409 1 3.31381 8.82192 5.13883 0 1.72036 -0.0423258 -0.314606
841 1 3.08825 7.94368 3.26576 0 0.73205 1.22639 -1.01018
919 1 2.11201 8.38852 0.853155 0 0.184367 -1.60225 -0.677655
220 1 1.56754 7.04509 3.91649 0 -0.48269 1.6559 -0.292267
178 1 1.49724 7.60304 1.58126 0 0.3169 -0.886974 -1.4742
461 1 3.42058 9.99235 3.33326 0 -0.364014 1.46428 -0.885308
150 1 1.4519 8.67426 3.89397 0 0.288804 0.0154077 1.72533
206 1 3.37725 6.75967 1.55531 0 0.988267 0.983909 -1.05624
142 1 2.48024 5.65054 4.65885 0 -0.587277 1.23735 1.08833
825 1 3.94611 8.455 0.937415 0 0.858036 1.15079 -0.999932
410 1 3.95204 7.48125 3.30155 0 0.594613 1.56567 0.505474
613 1 5.43794 9.99423 3.69435 0 -0.749562 0.959086 1.25647
774 1 4.71048 9.38542 3.1034 0 1.22771 0.242972 -1.22233
477 1 4.82556 7.5069 0.774541 0 1.42878 0.943049 0.360055
157 1 4.13185 8.00729 2.38573 0 0.292437 1.34745 -1.07669
173 1 4.62651 9.98127 1.70685 0 0.976105 0.870942 -1.1615
22 1 0.588113 9.19163 1.5463 0 1.23066 0.431661 -1.16599
758 1 2.85881 6.94046 4.10358 0 -0.973537 0.301032 1.42197
763 1 0.856095 9.18056 0.605314 0 -1.40798 -0.883733 -0.544976
265 1 4.77742 8.06648 3.0761 0 -0.222108 -1.1763 -1.27569
636 1 5.44042 8.30924 0.587181 0 1.17386 1.26049 -0.305997
789 1 2.3165 6.9385 3.04563 0 0.415614 1.68058 0.251658
547 1 4.36039 8.94702 1.89936 0 0.937973 1.16928 -0.901887
680 1 3.32175 8.98729 2.95455 0 1.49249 0.892461 -0.190761
744 1 2.12472 9.91926 4.51445 0 -1.15893 1.10158 0.709798
407 1 3.07854 9.96673 5.37193 0 -0.875577 -0.917979 -1.20461
401 1 3.87553 7.2021 4.36022 0 0.0618799 1.3378 -1.12555
859 1 1.16717 6.78135 4.9638 0 -0.775844 1.52658 -0.357789
566 1 1.18027 10.0781 4.43617 0 -0.497277 -1.65748 -0.256648
490 1 4.48187 6.20793 3.85193 0 -0.915616 -1.36612 0.596449
434 1 0.535416 6.90109 4.13379 0 -1.70108 -0.00718643 -0.408267
23 1 0.255491 9.87115 4.47361 0 -1.72267 -0.239659 -0.188051
513 1 2.38094 7.40276 0.990433 0 0.295008 -1.66619 -0.444067
600 1 4.95808 8.25391 1.50702 0 -0.668625 1.25853 -1.01462
564 1 1.42895 9.66323 3.5884 0 -0.842035 -1.47239 -0.42832
30 1 0.445747 7.54114 1.86094 0 1.04461 -0.709532 -1.21068
837 1 0.909352 8.49383 2.19265 0 0.970928 -0.402738 -1.39839
914 1 1.33959 9.02943 4.8382 0 0.223508 -0.708096 1.584
923 1 0.896823 9.27535 2.91494 0 -0.0101832 -1.21414 -1.25943
864 1 4.96295 5.75073 1.98393 0 -0.133625 1.60918 -0.673122
677 1 0.908832 5.97918 3.15715 0 1.55449 0.301536 0.743668
46 1 4.20245 5.88554 0.0751191 0 1.06213 1.13695 0.799771
978 1 4.36631 6.52819 0.824382 0 0.397907 1.36209 1.02312
496 1 4.84784 8.98551 4.65794 0 1.4949 0.87271 0.253056
62 1 0.721307 8.1836 0.93436 0 -0.575389 -1.03134 1.29061
932 1 3.10641 6.53751 0.250096 0 1.06359 1.37628 0.187159
828 1 0.520283 7.16452 0.901178 0 1.26304 -0.986017 -0.702063
834 1 5.46351 6.60272 1.51717 0 0.747929 0.962829 1.25458
373 1 0.184618 6.31644 4.89349 0 -0.531699 1.16841 1.1885
830 1 0.901649 6.9443 2.64835 0 1.52949 0.750645 -0.396988
878 1 0.683248 5.82128 4.09857 0 -1.32483 0.76714 0.8466
949 1 0.0808631 6.18177 2.60588 0 1.71581 -0.206844 0.271295
37 1 4.84151 7.11361 3.5342 0 -0.751886 -1.15542 1.07707
71 1 0.0422389 7.49903 2.84127 0 0.774791 1.00418 -1.20487
421 1 0.431948 8.6566 4.70516 0 -1.21902 0.916941 -0.856508
689 1 0.157467 7.79457 3.87848 0 1.33589 -0.211082 -1.10961
805 1 0.327244 7.62738 5.12118 0 -1.63033 0.227845 0.592039
597 1 0.890653 6.37856 0.326736 0 1.05132 -0.603862 -1.26114
165 1 3.09373 7.82001 5.25051 0 1.54285 0.108496 -0.817462
346 1 3.04304 8.25818 0.11202 0 0.862253 0.592622 -1.40204
267 1 1.93896 6.27845 0.274713 0 1.722 -0.307429 0.0243101
843 1 5.27134 6.05681 0.250357 0 1.6263 0.517993 0.383725
331 1 5.76526 10.0753 1.76485 0 1.1977 1.2751 0.00596121
238 1 5.68624 6.101 3.24493 0 0.792939 1.51194 0.381699
922 1 6.53163 5.49125 4.29544 0 -0.809304 -1.43104 -0.59796
146 1 7.24977 6.31241 2.12235 0 -0.0566262 0.203633 -1.73659
32 1 9.25538 5.99172 3.1146 0 -1.60843 0.585095 -0.361982
681 1 8.56114 5.92334 4.13023 0 1.6665 0.446129 -0.290093
257 1 9.60231 6.20378 1.09487 0 0.397742 1.36257 1.02254
831 1 6.38952 6.06478 5.28791 0 -0.441781 -1.3389 -1.03566
554 1 8.19527 5.87785 0.79354 0 -0.72967 -1.56026 -0.305869
637 1 5.91885 6.89549 5.10392 0 -0.13137 -0.607977 -1.63509
416 1 5.5995 6.21099 4.38074 0 -1.15025 0.0670308 -1.31637
377 1 10.0763 6.94781 1.54075 0 1.63665 0.551306 -0.278982
390 1 9.86928 8.4654 3.4355 0 0.375159 -0.0155345 -1.70863
851 1 5.89496 7.5182 1.38057 0 1.07483 1.37595 0.109048
501 1 5.65242 7.98662 4.53643 0 1.47196 -0.427148 -0.843376
730 1 5.75743 9.27237 4.37045 0 0.545293 -0.785282 -1.46506
694 1 5.68442 9.10432 1.32518 0 1.06279 1.38884 -0.044792
975 1 10.3283 9.57328 2.63341 0 0.580319 1.64437 0.140324
736 1 10.34 8.53957 2.56512 0 0.408374 1.24543 -1.15868
549 1 7.48037 5.95737 3.01063 0 0.0173737 1.5732 -0.764954
800 1 7.76279 10.1838 3.59298 0 0.780514 -1.26552 0.921765
561 1 5.80082 9.16724 3.11935 0 -0.652252 1.52594 0.553604
69 1 5.48399 8.30208 2.32674 0 0.435988 1.50548 -0.777066
739 1 6.17664 5.55596 0.909308 0 0.395477 0.755829 1.52732
847 1 6.18051 7.12235 3.99634 0 1.63242 0.31199 -0.546154
345 1 9.87521 9.22301 1.56225 0 1.12903 0.55123 -1.21731
738 1 6.57461 8.25281 5.05955 0 0.0677657 1.17946 1.29023
487 1 9.58499 6.03897 4.17702 0 1.07202 1.3823 -0.0202428
189 1 9.68908 9.54369 3.49548 0 0.788894 -0.310814 1.53018
883 1 9.58958 10.3138 1.92412 0 1.41143 -0.799909 0.654529
28 1 7.55147 6.98285 3.13507 0 -1.00629 1.35041 -0.47349
159 1 6.32816 10.1128 2.75197 0 0.550381 1.59834 0.45031
186 1 10.2657 6.36861 0.357616 0 0.855524 -0.454392 1.45671
573 1 9.76693 8.89397 0.440998 0 -0.734529 -1.2679 -0.955667
414 1 9.31318 8.99734 4.26556 0 -0.0623253 -1.38195 1.07086
641 1 7.49828 6.76615 0.968641 0 0.798132 0.712814 -1.38394
507 1 8.10148 7.98186 1.2523 0 -0.436876 0.872585 1.45194
527 1 8.55063 6.88712 3.58824 0 -1.54826 0.428983 -0.692292
309 1 8.74457 9.65938 1.70806 0 1.13954 -0.882892 0.991131
482 1 7.3123 10.0473 1.83915 0 0.0837985 0.825449 1.54013
927 1 7.22922 8.98569 1.74728 0 0.247573 1.59431 -0.676223
693 1 6.56251 9.54716 1.13276 0 -0.294482 0.951886 -1.43791
394 1 8.13164 8.97765 1.31101 0 1.15365 1.30157 -0.188162
986 1 8.81521 6.66093 1.52012 0 -0.645353 -0.934715 1.3305
41 1 6.24784 9.20966 2.22487 0 0.904898 1.08802 1.02848
291 1 9.23977 7.65875 3.61303 0 0.641374 -0.0111105 -1.62755
749 1 6.8177 10.1224 0.255337 0 -0.163016 1.63144 0.610105
383 1 8.35405 6.18821 5.0634 0 -0.818718 -1.25313 -0.905406
624 1 9.58664 7.89175 2.27404 0 -1.2788 0.112291 1.18847
879 1 8.90089 8.27088 0.845393 0 -1.19088 0.264387 1.25391
231 1 8.78075 9.48527 0.723202 0 0.954184 1.32079 0.636746
910 1 6.26767 8.47336 3.8982 0 0.47601 1.52782 -0.706816
918 1 9.02102 8.67274 1.78608 0 1.18956 0.106025 1.27832
593 1 8.39524 6.64727 2.60575 0 -0.140428 -1.32608 -1.13234
1000 1 8.39171 10.0953 2.83091 0 0.974169 -1.28759 0.673435
959 1 7.82456 7.26102 1.79138 0 -1.46329 0.533578 -0.796541
19 1 7.46289 5.60533 5.008 0 -0.521576 -1.64514 -0.286114
979 1 8.61984 5.73747 2.1874 0 -0.0678745 -1.6682 0.522414
460 1 7.2487 8.00965 2.2108 0 -1.64392 0.213897 -0.558718
850 1 7.13466 5.90551 1.11964 0 -0.00177896 1.55011 -0.810905
16 1 5.58946 6.75643 2.51875 0 -0.836729 0.101203 1.53298
361 1 6.41115 6.75668 3.10665 0 1.09323 1.34384 -0.243603
59 1 9.88843 7.07193 4.9595 0 -1.66402 0.478507 -0.249936
629 1 8.35658 8.65108 4.21667 0 -0.134308 -1.6986 0.3964
966 1 7.3144 8.41498 4.21306 0 -0.682367 0.845557 1.37106
634 1 7.70631 9.80756 0.959339 0 -1.26712 0.990616 0.6881
854 1 8.9587 8.46922 2.90408 0 -1.54088 -0.382029 0.734935
572 1 6.93066 7.33177 4.84365 0 1.60155 -0.67029 0.214832
729 1 6.51188 6.80451 1.78388 0 -0.798037 0.417605 1.49971
806 1 8.57539 7.68361 2.31567 0 -1.60844 -0.68748 -0.0266032
686 1 6.72401 8.62998 2.98684 0 -0.371269 1.6273 0.523895
408 1 9.47881 6.83814 2.48322 0 1.42584 -0.579674 -0.831474
661 1 10.0338 8.05639 1.35975 0 -1.25663 0.151366 1.20763
873 1 9.48231 8.11627 4.56568 0 -0.278682 -1.72189 -0.133503
473 1 6.62843 9.39587 3.89629 0 0.987217 1.42108 0.257557
687 1 7.49682 7.5337 0.407954 0 1.69899 0.199581 -0.366043
497 1 9.95943 6.70532 3.56976 0 -0.389135 0.749619 -1.53201
17 1 6.88237 6.29691 3.86993 0 -1.07577 -1.34438 0.30945
190 1 9.801 9.8549 0.807542 0 0.505777 -0.237202 -1.65781
996 1 7.52629 9.27648 2.92701 0 1.18905 1.08468 -0.685587
111 1 7.01277 7.70766 3.56442 0 -0.476232 1.68238 0.0564924
643 1 7.38267 8.64714 0.604933 0 1.4084 0.968325 -0.373051
576 1 6.32378 7.57846 2.41154 0 -1.16476 1.19678 0.521029
128 1 6.4812 7.57151 0.36349 0 0.45704 -1.0636 -1.31159
721 1 9.35808 7.22936 0.860826 0 -1.20743 -0.224503 1.24583
321 1 8.00154 8.65994 2.3013 0 -1.27224 -0.126147 -1.19411
611 1 9.28259 9.40476 2.55174 0 0.813913 -1.34663 0.764554
737 1 6.37912 8.35856 1.7437 0 0.218599 1.50182 -0.870147
207 1 8.53664 9.48144 3.64181 0 0.241702 -1.29867 1.14692
193 1 8.53192 8.26863 5.1626 0 -0.985889 -1.07373 0.967223
809 1 8.07625 8.02693 3.2903 0 -1.34663 0.933255 0.613212
125 1 5.70689 7.59658 3.21591 0 -1.27763 0.937897 0.740548
904 1 6.67988 10.0516 4.62269 0 0.476185 -0.35501 1.64548