ITEM: TIMESTEP
0
ITEM: NUMBER OF ATOMS
1002
ITEM: BOX BOUNDS pp pp pp
0.0000000000000000e+00 1.0346399999999999e+01
0.0000000000000000e+00 1.0346399999999999e+01
0.0000000000000000e+00 1.0346399999999999e+01
ITEM: ATOMS id type x y z q mux muy muz
3 1 1.91395 1.23701 4.63637 0 0.480018 -1.03612 1.32531
5 1 0.775654 3.43683 1.75427 0 -0.590131 -1.33693 -0.96165
10 1 5.33234 4.51118 2.18385 0 0.0215671 -0.523875 1.66898
11 1 1.71096 0.268523 1.09306 0 0.815311 1.38911 0.682665
12 1 5.46567 1.16555 3.65828 0 1.52816 0.851522 0.00475771
13 1 3.41379 2.65735 4.03005 0 1.18146 1.18967 -0.499247
14 1 4.20882 0.924795 4.57969 0 -1.42212 -0.333023 0.96285
25 1 4.44179 1.57104 3.81013 0 0.288593 -1.32186 1.10896
27 1 0.402065 3.81112 0.418716 0 -0.553781 -1.36597 0.942262
28 1 1.01342 2.03385 0.580401 0 -0.320335 -1.0088 -1.39288
30 1 1.1666 2.43995 2.34677 0 1.12034 0.734144 -1.12529
48 1 3.75725 0.0886608 5.28249 0 0.256615 1.19038 1.25601
57 1 2.41633 4.9239 3.23236 0 1.57933 0.751723 0.0322581
95 1 5.31757 4.49203 4.20205 0 -0.345907 -1.71361 0.0655017
98 1 5.14632 4.11164 0.99452 0 0.66236 -1.42739 -0.76435
99 1 0.365396 1.03724 2.42841 0 -0.019667 1.72781 0.2733
100 1 3.26502 3.38806 3.273 0 -0.596317 1.63206 0.202923
102 1 1.38418 4.28188 1.52233 0 -1.00353 -1.36473 0.436837
106 1 2.37834 3.87647 1.49082 0 0.881578 1.1029 -1.03288
115 1 4.65833 4.85869 2.92089 0 0.174927 -1.20754 1.25365
126 1 1.52137 3.25868 4.13107 0 -1.1699 0.151388 -1.29182
128 1 2.62587 1.5773 5.33488 0 -1.29834 1.17035 0.0707229
160 1 3.16639 2.02115 2.40212 0 0.7755 -1.45074 -0.595276
168 1 3.68845 2.92928 2.44811 0 -0.121311 -1.19146 1.27519
174 1 1.76097 2.08438 5.21946 0 -1.36414 0.734996 -0.811973
180 1 4.1176 3.49381 5.04362 0 -1.66341 0.536589 -0.0744833
206 1 2.5458 1.24052 2.8328 0 -0.933937 1.17737 -0.895523
212 1 0.450021 4.86709 1.45212 0 -1.37067 1.00008 -0.42602
222 1 3.15778 4.26965 3.90448 0 -0.948737 0.150449 1.46207
234 1 2.74858 0.611101 1.07025 0 0.85269 -0.877313 1.25046
244 1 0.815594 0.556072 1.57609 0 1.2925 0.577117 1.028
254 1 3.98381 1.98788 4.7026 0 -1.67584 0.391666 0.31394
259 1 2.12113 4.14663 3.83989 0 -1.36091 0.530542 -0.962725
264 1 1.13049 4.9982 0.61788 0 -0.835339 1.21474 0.941821
265 1 1.09712 3.06655 0.873683 0 0.0122326 -1.09915 -1.36093
270 1 3.45178 3.43372 1.50339 0 1.22313 1.09786 -0.599198
290 1 1.04545 3.60649 2.95033 0 1.51256 0.814517 0.330324
307 1 2.80014 0.466046 4.02786 0 0.824314 -1.44965 -0.528598
310 1 1.69626 0.45692 4.03088 0 1.22639 0.538335 -1.12542
312 1 3.30263 4.77752 4.81105 0 0.931674 0.0506548 1.4798
317 1 0.573986 4.29195 2.28045 0 -0.73565 -0.858305 -1.33511
323 1 1.11198 4.25309 3.79967 0 -1.27835 0.0995093 1.19009
330 1 5.33721 3.09299 1.23114 0 1.40667 -0.106036 -1.03462
333 1 2.16622 4.65329 2.21319 0 -1.21761 1.15716 0.48868
334 1 0.351242 1.86222 4.6277 0 1.4315 0.0292059 -1.00517
335 1 5.03917 0.442972 2.17088 0 0.413441 0.613022 -1.58546
373 1 4.49488 1.15242 1.56865 0 0.0553986 0.777282 -1.56626
386 1 4.23942 5.10317 1.51957 0 -1.36739 0.672036 0.859659
387 1 3.40889 0.321879 0.251616 0 0.523873 0.873985 1.42201
391 1 0.880745 1.0373 0.459707 0 -0.127873 -1.70257 -0.381208
392 1 4.08669 4.15048 1.0761 0 1.07113 1.36882 -0.198533
393 1 2.2816 1.69857 3.81521 0 -1.00962 -0.842789 1.15359
394 1 0.511648 2.46107 1.49417 0 -0.915718 -1.35202 -0.627612
405 1 3.7092 2.38808 1.48535 0 -1.52513 0.611668 0.600201
420 1 2.05547 3.43849 3.03756 0 1.338 -0.908872 -0.666424
433 1 3.99249 3.53574 4.01059 0 1.6563 0.11387 -0.551453
435 1 3.47166 5.04476 0.0718799 0 1.08076 -0.996965 -0.947846
440 1 4.04763 2.26395 3.11671 0 -0.791927 -1.55924 0.0448852
460 1 3.45034 3.262 0.416485 0 0.976292 -0.724761 1.25777
462 1 1.79001 3.10223 1.75062 0 -0.123221 1.35983 1.09366
469 1 3.75953 0.413057 1.25851 0 1.58934 -0.676411 0.277259
470 1 4.49473 2.61787 3.99266 0 0.346767 -1.32395 -1.08964
473 1 4.07815 1.43658 2.49361 0 0.0686001 -1.19477 -1.27602
479 1 1.58705 1.50659 2.67755 0 -1.38218 -0.839313 0.667476
490 1 1.43167 4.75932 2.96155 0 0.539006 -0.623658 1.54302
493 1 1.77429 2.24712 1.24432 0 -1.20921 1.21421 0.352007
494 1 2.60859 3.33792 4.16908 0 -1.2096 1.21368 -0.352519
496 1 1.09738 5.17137 4.33115 0 0.182864 1.49379 0.891943
510 1 3.72717 0.807088 3.62104 0 0.311071 -0.29054 -1.69683
516 1 1.27877 2.05167 4.27819 0 1.14723 -0.238564 -1.29898
524 1 1.11244 0.75502 3.15919 0 -0.854076 -1.50957 -0.228354
526 1 4.77004 5.25056 4.70101 0 0.375905 -1.44223 0.916015
538 1 2.98689 4.23718 2.65312 0 -1.25841 -0.072803 -1.21306
565 1 3.80815 0.45361 2.32327 0 -1.06796 -0.709106 -1.19039
577 1 2.11528 5.31551 0.294774 0 0.342219 -1.39285 1.00163
583 1 3.86738 4.26187 3.19448 0 -1.6578 0.323255 0.455653
598 1 4.19181 4.54168 4.20935 0 -1.40399 0.169807 -1.02974
617 1 0.887484 3.87413 4.72566 0 -0.466853 0.238991 1.66893
633 1 4.39059 4.54151 5.32185 0 -1.33987 -1.03382 0.443115
637 1 2.54038 2.59274 3.40251 0 0.39878 -1.32827 1.06634
641 1 3.9392 5.30206 3.5312 0 -1.10861 1.02322 -0.885659
647 1 4.65159 0.735844 3.13127 0 1.19166 1.12841 -0.60583
680 1 3.95536 4.08161 2.17172 0 0.280994 -0.171474 1.71815
681 1 1.22039 0.433314 4.93515 0 -0.0339653 -0.200473 -1.73754
684 1 3.26777 1.75043 3.45387 0 -0.686145 -0.475326 1.53742
691 1 2.03902 3.16921 5.01003 0 -0.966027 1.00896 -1.05319
702 1 0.174375 2.60753 2.47976 0 1.50434 -0.891969 -0.0417879
709 1 3.16854 1.39633 4.40676 0 -1.16965 -1.2672 0.294149
713 1 2.2702 5.14889 5.02185 0 0.942927 1.06422 1.01918
715 1 5.30664 5.09475 1.34062 0 -0.669579 -1.25655 1.01644
717 1 5.27982 2.00362 4.33654 0 -0.168007 -1.38845 1.0509
730 1 4.81168 3.39759 2.12468 0 1.62733 0.579113 -0.277202
740 1 4.53225 2.0463 0.99857 0 -1.70316 0.399558 -0.00185773
752 1 3.60858 1.58058 0.690278 0 -0.520263 1.06051 -1.29037
779 1 5.20919 0.725868 4.70409 0 -1.25551 1.20559 0.175059
787 1 2.62553 2.34598 4.58733 0 0.946037 1.17295 -0.8886
790 1 1.47108 1.28696 1.27359 0 1.00966 0.707739 -1.241
793 1 4.50151 3.21936 3.13559 0 -1.06562 -0.649998 -1.2257
796 1 2.71725 2.54463 1.5341 0 -0.865383 1.35386 -0.691795
802 1 2.4585 3.10424 0.756991 0 -0.617947 0.747462 -1.45597
806 1 2.33367 1.55129 1.86507 0 -0.415792 1.48384 -0.828093
807 1 4.56639 2.37623 2.09286 0 -0.994797 1.38494 -0.390797
810 1 2.74619 3.30259 2.29569 0 1.22181 -0.593363 -1.10249
825 1 4.95187 1.77019 2.91896 0 -1.63061 0.289368 0.563719
830 1 2.99363 5.36628 3.9413 0 -0.0999662 0.476874 1.68018
835 1 2.61546 0.553817 5.06437 0 1.65988 0.267496 -0.483355
840 1 2.10518 2.14565 0.27026 0 -0.564289 -0.235452 1.63907
846 1 2.45579 4.13446 4.85494 0 -0.228921 1.70139 0.336561
854 1 0.627945 1.79228 3.05287 0 1.09301 0.654124 1.1991
867 1 1.50002 2.34103 3.33541 0 0.1892 1.55168 -0.785423
878 1 2.1904 2.42763 2.46621 0 1.47162 -0.0961092 0.941004
897 1 1.73092 0.659302 2.07981 0 1.53322 0.841278 0.0435806
910 1 3.41572 1.33057 1.67759 0 -0.119857 -1.05683 -1.38893
935 1 4.77223 2.69139 4.98425 0 -1.57871 0.452684 -0.602622
951 1 0.331313 0.427927 4.3428 0 -1.52059 0.688164 0.524056
962 1 5.36905 1.67418 1.95412 0 -1.07537 -1.13809 0.780207
970 1 0.406616 2.95389 4.61932 0 1.2519 -0.151445 -1.21252
972 1 0.397218 1.48018 1.32141 0 0.120558 -1.68023 -0.471916
981 1 0.663813 2.91647 3.64164 0 -1.28862 -0.725467 -0.934647
992 1 4.31116 3.10237 0.940879 0 1.49483 0.040543 0.90787
998 1 5.14218 3.50105 3.88779 0 -1.12021 -1.33841 -0.119199
1000 1 5.06522 2.74636 0.280567 0 -0.895433 -0.973038 -1.14534
1001 2 0.455304 0.148192 0.0993044 -13.626 0 0 0
135 1 0.00419721 1.10729 3.54806 0 -0.81187 0.681882 -1.39151
288 1 0.259272 4.89226 3.02303 0 1.42662 -0.279422 -0.973174
340 1 5.46152 0.859549 1.26428 0 1.66107 0.528032 -0.149811
379 1 0.0298624 5.04398 4.35427 0 1.19555 -0.132803 1.27021
591 1 0.0267654 3.59828 2.87089 0 1.69807 0.0303819 0.419546
767 1 0.806858 4.87024 5.31127 0 0.325577 -1.59318 -0.645119
833 1 0.0730833 4.85514 0.521571 0 -0.476843 -0.582667 -1.57909
644 1 2.36866 4.94646 1.19356 0 0.357117 -0.69305 1.56606
674 1 1.27266 5.18959 2.03006 0 -0.924956 -1.47577 0.164184
675 1 2.79991 0.553371 2.08268 0 0.0568515 0.371307 1.7086
687 1 3.62573 5.3232 2.29615 0 -0.608253 0.734357 1.46668
749 1 2.29202 0.229207 2.90933 0 -0.760047 1.17929 1.04499
782 1 4.34247 0.726293 0.451226 0 0.749757 1.01356 -1.21284
820 1 3.3185 5.43629 1.13895 0 -1.55099 -0.802575 -0.103491
890 1 3.23519 4.52462 1.6117 0 1.33393 -0.918907 0.660784
640 1 4.73045 0.0434586 1.19602 0 1.58916 0.62079 -0.386769
884 1 5.40506 0.286776 0.353923 0 0.972741 1.39217 -0.419577
56 1 3.11396 3.33752 5.07837 0 -1.44313 -0.067406 -0.986523
138 1 4.68107 1.58985 0.0656051 0 1.14788 1.21213 0.522967
142 1 4.84812 1.58742 5.13669 0 -1.25389 0.844163 0.880659
354 1 2.10736 1.11158 0.471115 0 1.1153 -1.34213 -0.123245
436 1 4.5986 5.14626 0.52342 0 -0.92251 1.18578 0.896274
542 1 4.09699 2.4595 0.0692141 0 -1.48286 0.853579 -0.364588
552 1 0.282303 0.88813 5.29938 0 0.707258 0.537156 1.5072
899 1 1.78662 3.43828 0.105839 0 -1.52124 -0.213411 -0.837064
915 1 2.87599 4.1541 0.6486 0 0.945006 0.932883 -1.1389
991 1 3.52183 1.08998 5.36255 0 -0.436993 1.48381 0.817148
232 1 5.07494 3.66456 5.3885 0 -0.870987 -1.41448 -0.548662
2 1 3.0823 2.29787 0.0202682 0 -1.53469 -0.837558 -0.0602141
159 1 9.79053 4.07296 0.927889 0 0.838251 0.647954 1.39208
208 1 5.90425 2.22203 1.31896 0 -0.451374 -1.18763 1.20258
229 1 5.94554 1.45529 4.93491 0 -0.0376964 -1.6517 -0.575212
249 1 5.69311 3.65807 2.63368 0 1.1701 -0.920132 0.919036
571 1 9.77725 0.235206 3.69807 0 1.17458 0.471907 -1.2075
832 1 5.56811 2.65474 2.25426 0 -1.03851 -1.16995 -0.783015
983 1 5.90919 3.88876 0.310536 0 -0.328892 1.12778 -1.29628
6 1 9.06405 4.44136 1.59177 0 -1.53 0.846416 -0.0555762
22 1 8.33789 0.711492 0.613599 0 1.29004 1.18105 -0.0361839
34 1 8.91673 0.560941 2.17698 0 -1.15943 -1.14709 -0.632703
37 1 7.52218 1.26625 2.32864 0 -0.665594 -1.13698 1.15094
38 1 6.79894 3.03298 4.9113 0 -0.93083 -1.41308 0.444041
41 1 9.7064 2.91212 4.77659 0 0.740594 -1.07529 -1.16433
43 1 6.65698 3.8934 5.44562 0 1.43944 -0.95935 0.260898
44 1 5.63029 4.64913 3.15945 0 1.67052 0.0286801 0.518585
47 1 7.01188 5.1622 1.67064 0 1.13342 -1.25345 0.452364
49 1 7.00722 4.11223 1.94138 0 0.971364 -1.19462 0.830504
53 1 9.53786 2.88406 2.74782 0 0.433531 0.370687 -1.6538
62 1 6.21819 0.49994 4.6723 0 -1.28303 -0.837888 -0.843899
66 1 9.68404 2.94713 1.72513 0 1.06307 -0.895176 -1.06252
67 1 6.28638 0.845627 3.02549 0 -0.390181 1.13752 -1.27052
72 1 9.94656 3.99575 1.97702 0 -1.49443 -0.332738 0.846386
76 1 9.36301 0.263383 0.911351 0 -1.63631 0.450768 0.42389
77 1 8.42026 2.88911 4.47702 0 -0.977768 0.911086 -1.12885
79 1 9.38359 2.1374 0.349408 0 -1.47162 -0.297831 0.897793
83 1 6.97896 3.02424 2.09119 0 1.63277 -0.627906 0.0135333
85 1 6.28162 2.57568 0.331832 0 1.07272 0.756133 1.15669
87 1 8.92542 1.05156 4.34438 0 0.103407 -0.713929 -1.59374
89 1 8.43568 4.03604 3.84147 0 1.17892 -0.275152 1.26287
110 1 8.56232 1.51084 2.46059 0 1.1815 -0.990185 -0.827038
116 1 9.28136 1.69046 3.21207 0 -0.887942 -0.247705 1.48681
144 1 6.2138 0.0645633 3.72579 0 -0.328758 -0.6188 -1.60294
155 1 7.91626 0.418474 1.86311 0 -0.760361 -0.957441 1.25122
158 1 8.53624 4.21491 2.46989 0 1.02377 -1.02108 0.984721
182 1 8.68134 2.01074 3.96498 0 0.363537 0.631962 1.59024
204 1 9.39934 3.95325 2.90916 0 0.487204 -0.365602 1.63993
272 1 8.33348 2.4155 2.96692 0 1.0503 0.412713 -1.33676
304 1 8.83903 2.14026 1.68853 0 -0.591243 1.40355 -0.860746
311 1 6.9606 4.15417 0.904257 0 -0.397035 0.862651 1.46922
316 1 9.26168 0.953615 0.129345 0 1.09944 1.09591 -0.806596
324 1 6.57592 1.74758 2.04822 0 -1.13593 -0.641905 1.16535
351 1 6.96313 4.00974 4.45001 0 -1.02012 1.07213 0.932904
355 1 6.37267 1.2801 1.07224 0 1.2773 1.18443 -0.161381
360 1 9.07185 3.71157 4.60889 0 0.219414 -1.42908 0.984884
367 1 6.9989 1.16407 4.97462 0 -1.17496 -0.454126 -1.21394
371 1 6.53557 2.76336 3.87333 0 -0.221856 0.518624 -1.65596
374 1 8.89693 4.8519 3.27494 0 -1.69597 0.119725 -0.411999
375 1 6.24279 1.7584 3.95347 0 0.870703 1.19589 0.93388
389 1 6.49466 5.40253 5.33047 0 -1.6083 -0.207602 0.656255
416 1 7.04321 3.31722 0.311154 0 0.546508 1.20359 1.1459
442 1 9.32115 1.9406 4.81237 0 -0.852385 -1.31424 0.778848
455 1 7.45856 2.41516 3.51278 0 1.3645 1.09374 0.0476251
458 1 7.78972 1.3579 1.32144 0 -0.0131575 -1.22943 1.24448
474 1 7.96208 1.49259 3.326 0 1.52732 0.621445 -0.584369
480 1 7.58093 0.196228 3.5244 0 0.971754 1.04102 -1.01605
482 1 5.97706 3.88801 1.63872 0 -0.306141 1.04678 1.36782
486 1 6.9695 1.61348 3.13388 0 1.21614 0.625335 1.09104
511 1 7.79634 2.63689 1.1308 0 0.866057 1.06148 1.08794
514 1 8.87121 5.44709 1.89792 0 -1.07825 1.33807 0.327618
522 1 7.5364 3.23789 4.14894 0 -1.25236 1.18389 0.300648
523 1 7.5921 4.66796 3.98062 0 -0.254488 -1.31463 -1.12578
543 1 10.0598 3.37346 3.87328 0 -0.719535 1.38704 0.786637
549 1 7.09158 0.922184 0.379474 0 0.453718 0.491037 -1.61661
558 1 9.3435 3.45012 0.283714 0 0.431813 1.51896 0.75279
561 1 9.69375 5.41612 2.78963 0 0.878128 -1.50691 -0.136084
567 1 8.68482 3.17635 1.37672 0 1.18854 0.740048 -1.04886
572 1 5.53275 2.48883 3.50588 0 -0.469868 -0.108975 1.68159
582 1 8.13002 3.442 3.06627 0 -0.744987 0.746407 1.3958
585 1 5.92219 3.75225 4.65465 0 -0.144032 -1.29651 1.16564
594 1 7.54005 4.31672 2.82503 0 1.33672 1.12221 0.119272
603 1 9.93418 4.38582 3.69439 0 1.03988 1.39353 -0.192641
615 1 7.06564 3.49826 3.26703 0 -0.409871 0.492899 -1.62772
626 1 5.59901 1.82862 0.418254 0 0.623666 1.43811 0.77672
642 1 7.0943 1.9502 0.756223 0 1.68626 0.269546 0.379844
645 1 7.14327 2.15331 4.4783 0 -0.0739681 0.888341 -1.50525
649 1 6.45375 5.08938 3.54203 0 1.49433 0.808515 0.416765
652 1 10.3115 0.667236 0.904827 0 -0.327376 -1.219 -1.21131
658 1 8.63483 4.29878 0.0889268 0 -1.06007 -0.874318 -1.08269
661 1 6.86773 0.87984 3.93681 0 -1.07841 -0.511878 -1.27883
663 1 7.65986 2.25257 2.11462 0 0.302116 -1.67805 -0.391516
670 1 9.86704 0.963682 1.76396 0 0.974024 -1.43587 0.223487
683 1 8.44121 1.88983 0.701754 0 -1.70067 0.295535 -0.284249
722 1 9.03041 3.15535 3.59591 0 0.347447 -1.16872 -1.2545
725 1 8.66462 5.03637 0.806176 0 0.60398 -0.825995 -1.41892
738 1 9.80475 1.94109 1.33459 0 0.283483 -1.12434 1.30992
744 1 6.08964 3.82943 3.62443 0 -1.26859 -0.55908 1.06701
746 1 8.58123 0.1 4.66934 0 -1.0282 -0.504552 1.32236
747 1 9.76204 1.87504 2.35345 0 -0.888623 -0.745679 1.30947
748 1 9.69774 0.788415 2.8104 0 -1.13869 -0.259481 -1.30248
756 1 8.7386 0.775727 3.29416 0 -0.697028 -1.25151 -1.00413
759 1 7.92948 5.21783 3.13625 0 -0.768051 1.31669 0.858383
761 1 8.15334 4.14678 1.1941 0 -1.314 -0.638604 -0.962289
763 1 7.87934 3.49731 1.99505 0 1.73517 0.185057 0.123818
789 1 5.947 1.82151 2.829 0 -1.19901 0.589492 1.12928
792 1 6.32597 4.83888 2.41916 0 0.284119 0.6343 -1.60541
799 1 7.6678 0.529022 4.52438 0 -1.41735 -0.00765974 -1.0254
804 1 9.8506 5.11674 1.73299 0 -1.30851 -0.708483 0.919922
811 1 7.94161 4.86721 1.97593 0 1.26865 -0.786553 0.912279
855 1 8.0778 3.44118 0.450603 0 1.11917 -0.872065 -1.02341
857 1 5.8123 2.73661 4.83896 0 -1.06611 -1.17625 -0.73502
860 1 7.66331 0.0120122 0.273978 0 0.252409 0.770965 1.54994
863 1 9.96102 1.14595 4.56097 0 1.06361 1.17738 0.736828
902 1 10.134 2.3943 3.44275 0 -1.11479 1.00692 -0.896524
904 1 6.3437 2.82284 2.88348 0 -0.682768 -0.490073 -1.53429
908 1 9.34801 0.578332 5.17498 0 -0.73732 0.642443 -1.45053
913 1 6.47382 3.13155 1.17043 0 -0.268165 0.81357 1.52532
916 1 6.64705 4.98244 0.347567 0 0.113182 -0.935222 -1.47409
917 1 9.2172 4.69502 4.44963 0 0.274685 -1.71944 -0.168783
932 1 8.03401 1.55395 4.66901 0 -0.280522 -1.34938 1.07744
933 1 6.26371 4.76105 4.52658 0 -1.1729 0.287706 -1.26568
934 1 8.01552 4.10741 4.82064 0 -1.20234 1.16918 0.497799
973 1 5.59541 4.88717 0.372634 0 -0.948956 0.74192 1.26864
979 1 10.0858 2.83716 0.79653 0 0.0123553 -0.49699 -1.67727
980 1 8.9843 1.15776 1.27475 0 1.05373 0.874621 1.08862
349 1 7.60401 5.02199 0.819733 0 0.0865139 1.74402 0.106388
401 1 9.72206 5.20554 5.20697 0 -1.25199 -0.566018 -1.08284
602 1 6.24647 0.709248 1.98068 0 1.23354 -0.911907 -0.840957
734 1 6.66018 0.01239 0.683929 0 -0.507855 1.12791 -1.23705
943 1 7.12874 0.340553 2.60071 0 -1.55102 -0.773324 -0.238164
241 1 7.56922 4.31873 0.0803661 0 -0.955755 0.613263 1.33073
306 1 7.25298 4.72783 5.17101 0 -0.754872 1.29393 0.903497
410 1 10.2995 4.23476 5.04331 0 -0.522868 -0.618971 1.55045
795 1 10.2558 1.24236 0.0177364 0 1.36998 -0.526365 0.952097
887 1 8.49136 2.31193 5.31666 0 -0.768493 1.27228 -0.922569
895 1 7.75926 2.99527 5.37571 0 -1.19972 1.22897 0.332746
173 1 4.42142 10.1317 2.82921 0 -0.178116 1.73978 -0.0427286
395 1 3.29364 9.98887 4.45287 0 0.133125 -0.911739 1.48708
400 1 2.55168 6.54865 3.52959 0 -0.410209 1.13841 1.26339
412 1 3.25072 10.2769 3.26826 0 0.99299 -0.689284 -1.26462
501 1 5.43736 9.9155 2.60509 0 -0.731822 1.46982 0.603721
650 1 5.18728 10.2702 3.57418 0 -1.13847 0.309844 1.29162
743 1 1.01334 10.3215 2.43583 0 0.455892 0.740014 -1.5182
809 1 1.6672 5.88045 3.69886 0 1.21678 -0.987002 -0.778247
873 1 0.439105 10.3085 3.43761 0 0.734094 -0.14765 1.58105
889 1 2.10786 6.35698 0.155805 0 0.66334 -1.39989 -0.812835
907 1 0.860401 5.81316 2.9812 0 -0.776402 0.493213 1.48807
937 1 5.09573 5.59412 2.39378 0 -0.761009 -1.16682 1.0582
967 1 1.47519 10.0953 3.29546 0 -0.426985 -1.3842 -0.98086
457 1 0.0287243 5.73296 3.5833 0 -0.907045 -1.49332 0.0875492
17 1 3.09477 7.3719 3.93805 0 0.873114 1.51072 -0.125721
18 1 2.52272 8.63847 2.15878 0 -0.0344227 -0.79718 1.55683
36 1 0.601353 9.10966 0.991103 0 -0.904242 -1.31503 0.716549
55 1 4.28045 8.2028 3.01977 0 0.723445 1.28836 0.936567
65 1 4.01397 6.63195 5.07911 0 1.6104 0.15032 0.666657
81 1 4.26452 7.78947 1.15569 0 1.40926 -1.00672 0.246796
86 1 0.0791495 6.21772 2.35073 0 -0.968117 1.24693 0.753874
90 1 3.88595 7.15822 1.91736 0 -0.89423 -1.44252 -0.424126
91 1 1.15319 6.6681 5.01369 0 0.652304 -1.60188 0.262441
103 1 2.46381 9.81707 2.24567 0 -0.0227498 1.30367 1.16633
108 1 0.163287 5.97088 0.330015 0 -0.817798 -0.962437 1.2105
152 1 1.5401 8.91152 0.511473 0 -1.05642 1.38786 -0.135032
154 1 3.47404 9.82506 0.852896 0 -1.55522 -0.800953 -0.0122477
161 1 1.10696 6.18717 2.05673 0 -0.0824903 -1.55441 0.798381
187 1 3.36011 9.11394 5.38095 0 0.437862 -1.36818 -0.998377
188 1 0.532189 6.02164 4.42986 0 -0.695537 1.13378 -1.1363
189 1 0.811583 6.92818 1.35755 0 -0.162193 1.5636 0.767626
213 1 4.43243 6.21266 1.81697 0 0.533952 0.0747011 -1.66425
216 1 2.81701 7.1969 1.72833 0 -1.51157 -0.0332541 0.880024
217 1 5.15349 7.49621 3.54126 0 -0.0490579 0.945357 1.47115
220 1 3.60896 8.9802 4.33651 0 -0.573407 -1.61599 -0.346671
226 1 5.31568 9.03649 1.94785 0 -0.313298 0.021103 1.72099
258 1 1.18298 9.7802 1.60308 0 1.07232 -0.846624 -1.0926
276 1 4.27217 8.20638 4.19419 0 1.51782 -0.596782 0.632828
281 1 4.14367 6.7489 0.970157 0 1.10288 0.742057 -1.13728
286 1 0.592829 7.57781 2.46996 0 -1.09027 1.02521 0.905907
301 1 0.591021 9.44978 2.79315 0 0.164154 1.66088 0.524352
305 1 4.99873 7.1049 1.4253 0 1.25595 0.240455 1.19381
309 1 1.30094 8.29135 2.79143 0 0.453589 0.396539 -1.64238
336 1 1.41569 9.56387 4.93729 0 -0.451578 -0.931862 -1.41
344 1 2.64007 5.60248 1.95324 0 0.580499 0.5175 1.56704
345 1 2.90285 8.35236 4.81662 0 -1.22056 -1.23826 0.193264
352 1 4.83929 6.93689 2.77449 0 0.136288 1.05708 1.38723
380 1 4.08672 7.67502 0.118106 0 -0.110712 1.67681 0.48625
381 1 1.38109 6.97389 2.68057 0 -1.16968 -0.0231228 -1.30066
397 1 1.98453 7.73272 2.17185 0 -1.11097 -1.3071 -0.342997
411 1 5.33445 8.34356 2.76244 0 0.563897 -1.52987 -0.633981
414 1 4.61526 9.34302 3.59232 0 -1.04935 1.24256 0.644445
418 1 0.735116 6.87486 0.292912 0 0.767067 -1.39198 -0.731021
424 1 2.15466 8.80954 4.21943 0 0.792546 1.50517 -0.40832
430 1 2.36514 6.71613 2.53507 0 -1.17539 -0.43194 1.22159
438 1 1.34996 9.10714 3.52535 0 -1.12689 -0.702113 1.1391
446 1 3.07459 8.35018 3.64826 0 -1.04628 0.897679 -1.07698
449 1 3.80375 5.73228 4.49885 0 1.69015 0.316537 0.321846
456 1 3.29616 7.39764 0.826396 0 0.896908 0.742483 1.30563
467 1 1.2855 7.5959 4.48958 0 0.144724 -1.41469 -1.01888
478 1 2.44366 9.98845 0.741563 0 -1.41148 -0.941138 0.427056
483 1 2.02652 5.97505 1.19428 0 0.760573 -1.5669 -0.163569
491 1 2.60257 9.00097 0.624618 0 -0.384608 -1.1063 -1.29945
497 1 4.28016 8.72369 5.12854 0 1.6069 0.690898 -0.030699
506 1 4.91539 5.73483 3.46601 0 -1.33404 0.784317 -0.815831
509 1 3.34936 6.87885 2.81347 0 -0.875393 1.08808 -1.05364
531 1 2.23097 8.67731 3.15528 0 -1.20805 0.875595 0.913427
533 1 2.19592 7.63372 5.15427 0 -1.06017 0.18346 1.37942
537 1 5.0311 8.00717 4.9573 0 0.961261 -1.04778 1.01908
541 1 3.92067 8.55206 1.85522 0 0.869065 1.08461 -1.06242
546 1 1.64994 7.57627 3.51589 0 0.901436 -0.336007 -1.46113
553 1 3.40719 6.28186 1.74943 0 0.181006 -1.1323 -1.32119
555 1 4.14595 10.2074 3.89179 0 -0.948747 0.427161 1.40635
563 1 1.10813 6.71629 3.8562 0 1.54737 -0.8099 0.100591
600 1 2.9219 5.81148 2.91242 0 -0.564524 1.07826 1.25661
610 1 2.14186 6.25563 5.11999 0 1.31944 0.0914518 -1.14504
625 1 5.4309 8.92978 4.66247 0 0.143822 -0.943293 1.46626
654 1 1.2051 9.88088 0.577211 0 -1.04702 1.2705 0.591598
657 1 0.803299 8.13899 3.67625 0 1.25693 -0.804379 -0.912966
660 1 4.20061 6.08264 2.78964 0 -0.0398393 1.31911 -1.14837
664 1 1.85668 8.21318 1.19991 0 0.777503 1.18131 -1.02976
665 1 3.44191 8.38047 0.474661 0 -1.54758 0.66573 0.471392
676 1 3.31584 7.90411 2.36073 0 1.15268 -0.0665635 -1.31427
679 1 2.96811 6.39786 0.8102 0 -0.979122 1.42054 -0.289482
704 1 2.51178 9.66648 5.03064 0 -1.32036 0.0763865 1.14508
705 1 3.00542 6.38834 4.50082 0 1.33404 -1.03774 -0.451485
708 1 4.08729 7.23671 3.46 0 -1.39982 -0.355792 -0.987077
711 1 0.902728 7.91451 1.49221 0 0.173639 1.69744 0.385929
720 1 0.177277 8.775 4.64348 0 0.834403 -0.740283 -1.34765
721 1 0.901393 7.88816 0.432047 0 0.0684519 -1.06867 1.38335
733 1 1.96956 9.79512 4.12321 0 -0.180435 1.60822 -0.664439
773 1 4.68282 7.80267 2.14247 0 -1.74012 0.0396763 0.175496
775 1 4.72173 6.23336 4.41861 0 1.74161 -0.0355108 -0.161013
783 1 2.85783 9.38635 3.6956 0 1.3656 0.859312 0.676105
785 1 3.5125 9.82245 2.38504 0 0.859498 -1.52165 0.0789485
788 1 3.17208 7.30165 4.97359 0 -0.852845 -1.05299 -1.10647
812 1 0.225607 8.47268 2.84316 0 -0.399363 0.90898 1.44037
814 1 1.972 8.73712 5.29776 0 1.1754 -0.319629 1.25565
817 1 1.80968 6.88267 1.64659 0 -0.775431 -0.850171 -1.31769
818 1 3.87413 5.92493 0.448229 0 -1.22099 -0.0583951 1.25147
822 1 0.202788 10.085 1.34977 0 1.69171 0.439861 0.0709241
823 1 3.49466 8.86128 2.76427 0 0.15584 -1.46382 -0.945174
829 1 2.56814 7.65093 3.0161 0 0.413642 0.758111 -1.52137
844 1 4.55087 7.2386 4.36739 0 -0.970799 -1.18137 -0.849891
847 1 2.13207 7.00552 4.3291 0 1.19874 0.407643 1.20717
852 1 2.0434 9.26058 1.47141 0 0.943818 -0.284049 1.44531
853 1 4.31786 10.0552 0.276426 0 -1.00172 0.780509 1.20323
859 1 5.17731 8.49201 3.76068 0 0.189167 1.46797 -0.932572
871 1 3.12826 9.20689 1.57906 0 -1.39867 -0.788972 0.694004
874 1 1.87639 5.72856 2.70418 0 -0.387465 -0.640986 -1.58095
885 1 0.999918 5.98954 0.993285 0 0.548357 1.16755 1.18175
893 1 4.16783 9.54076 1.60282 0 -0.617499 0.741083 -1.45942
894 1 3.56487 6.31357 3.61862 0 -0.849362 0.817469 -1.29257
920 1 0.0283978 8.25046 1.02576 0 -1.10185 -0.926565 -0.993887
922 1 4.50499 9.15399 2.55486 0 -0.552472 1.63629 0.278823
924 1 1.20399 8.61572 4.57949 0 1.1801 -1.23637 -0.373021
926 1 0.684536 9.60802 4.18302 0 -1.34011 0.214741 1.10381
941 1 0.761118 8.80212 1.98762 0 -0.190648 1.13728 1.31554
944 1 4.18734 9.08341 0.636505 0 -0.693226 0.657872 -1.46528
968 1 1.62397 9.20929 2.4491 0 1.3124 1.01908 0.547268
982 1 4.9574 9.82142 4.48808 0 0.579062 -1.32549 0.983951
385 1 4.97204 6.03238 0.975125 0 1.70898 0.370549 0.04977
513 1 4.96851 8.60341 1.03061 0 -1.47239 0.688705 0.646654
685 1 0.262867 7.68177 4.68552 0 1.56684 -0.223974 0.745159
959 1 0.229389 6.72469 3.28255 0 0.65549 -0.336583 1.58665
227 1 2.48232 8.03725 0.350008 0 -0.377681 -1.28846 -1.12144
372 1 4.69516 6.35525 0.00359281 0 -0.101742 -1.56035 0.784446
751 1 1.79117 7.30294 0.192936 0 0.410215 -1.69305 -0.160304
839 1 0.0403981 6.33309 5.3274 0 1.68709 0.368202 -0.280302
341 1 5.24445 9.59744 0.442968 0 -0.466683 1.17362 -1.21047
263 1 6.90713 10.3361 1.66829 0 0.198643 -0.830211 -1.52699
221 1 10.3102 10.3388 2.52729 0 1.01033 0.654058 1.26959
15 1 6.57938 5.8552 0.874005 0 1.55689 -0.684195 0.410332
111 1 6.74155 6.53814 1.7169 0 0.94732 0.97469 1.10135
143 1 8.78681 5.57512 4.9699 0 0.228759 0.364357 -1.69568
147 1 9.57397 10.109 1.83547 0 0.666104 0.200735 1.60512
237 1 9.59595 5.49175 0.734526 0 -0.0259654 1.58776 0.733983
238 1 6.12492 5.66209 1.80715 0 1.14889 0.159148 -1.30963
716 1 9.03047 5.61413 3.98175 0 1.07581 -0.810709 -1.11615
985 1 8.27309 10.3398 2.80853 0 0.583553 -1.5986 -0.405381
292 1 10.1369 9.27695 3.76735 0 -1.30047 -1.15339 0.197153
364 1 6.07657 5.83105 2.85358 0 -1.53036 -0.714805 -0.455458
521 1 5.54265 10.264 5.25366 0 -0.25188 1.72485 0.147859
534 1 5.69449 9.34502 3.43407 0 -0.821656 0.983953 -1.19043
618 1 5.52122 5.83264 5.30798 0 -1.26388 1.06945 0.565048
843 1 10.2281 6.90439 0.911848 0 0.870813 -0.921511 -1.20536
1 1 7.59722 6.01801 1.0444 0 0.66223 1.55276 0.459129
32 1 8.63377 9.40715 4.56393 0 1.06046 -0.933128 1.03204
35 1 10.1014 9.15115 1.70056 0 -1.25318 -0.266963 -1.19108
46 1 8.08853 8.0389 2.00732 0 0.376053 -0.626798 1.58937
75 1 9.32558 8.33923 3.09004 0 1.30917 -0.679407 0.940677
84 1 5.65801 5.50431 4.12944 0 -1.49352 -0.649577 -0.638619
104 1 6.87704 8.36156 4.11444 0 0.75423 -0.970223 1.24507
114 1 7.23775 8.86842 3.30403 0 -1.28 -0.312271 1.15086
124 1 7.15955 7.13989 3.28895 0 -1.3674 -0.633255 -0.888593
127 1 8.22002 8.96936 1.54807 0 0.0791656 -1.38033 1.07184
129 1 9.60718 8.94243 0.850919 0 -0.139317 0.481918 -1.67593
132 1 7.00313 6.34904 5.40814 0 0.447591 1.0772 -1.30373
133 1 7.65106 9.06432 0.629594 0 0.0879214 -0.896105 1.49989
139 1 9.02381 7.20707 3.02519 0 -1.59898 -0.695817 -0.139697
150 1 10.0065 7.55526 2.97944 0 -0.447697 -1.4133 -0.928729
153 1 6.26553 6.89345 2.8376 0 -0.367579 -1.57088 -0.676486
166 1 5.51637 6.83281 4.9194 0 1.52628 -0.774387 -0.362215
172 1 7.47788 7.07198 1.19386 0 0.992461 1.23459 -0.742429
179 1 9.57736 9.90523 4.42048 0 0.121088 1.04029 -1.40126
190 1 9.31247 6.43178 4.71277 0 0.00529523 1.74559 -0.115253
194 1 8.56756 9.89784 1.95661 0 0.800029 -1.16294 -1.0334
196 1 6.298 8.79845 2.78251 0 -0.959585 -1.29977 0.670958
198 1 5.89323 9.04851 1.05605 0 -1.491 0.614774 -0.67778
223 1 7.77066 9.87429 5.01294 0 -1.20396 -1.18741 -0.448254
247 1 8.77648 10.1519 3.74155 0 -0.0124881 1.27288 1.20001
252 1 7.72393 7.7416 3.8308 0 -0.632217 -1.0277 -1.26671
268 1 5.97905 8.14946 1.98961 0 0.0662246 -0.573268 -1.65148
273 1 10.1333 8.19578 3.82152 0 1.39224 -1.02892 -0.251781
284 1 9.26687 6.40822 2.3068 0 0.707206 -0.0541181 -1.59917
296 1 10.3263 5.96433 1.34862 0 0.985488 -0.660641 1.2856
328 1 9.29367 10.1262 2.84573 0 0.262523 -1.05889 1.36756
337 1 9.66311 7.8614 5.06685 0 1.32145 -0.802396 -0.818731
338 1 8.96623 8.65125 5.17814 0 -0.891604 -0.85664 1.23758
339 1 7.55397 8.16398 1.13742 0 -0.904081 0.0911414 1.4949
353 1 8.92185 9.0144 2.4153 0 0.680944 -1.15013 1.12868
361 1 5.59238 6.48103 2.19468 0 -1.27943 -0.96261 -0.704871
366 1 10.0229 7.09611 1.95748 0 -0.564662 1.11437 -1.22464
368 1 9.3946 6.42525 1.29311 0 1.29051 0.863206 -0.806144
378 1 10.248 6.80949 4.26266 0 -0.647649 1.44639 0.740873
383 1 9.01097 7.35791 1.93153 0 -0.741183 0.787327 1.3752
413 1 9.13027 9.19715 3.65863 0 -1.17835 0.774016 -1.03575
415 1 7.12713 8.41267 2.23954 0 0.821688 1.53677 -0.153495
419 1 6.78507 10.2308 5.40645 0 0.826943 1.14369 -1.0337
421 1 9.91364 9.30625 2.68853 0 0.644703 0.24978 -1.60697
422 1 6.12518 7.84092 3.22142 0 0.924585 -1.46822 0.223318
432 1 8.48235 7.65841 1.07814 0 -0.696319 0.950857 1.29283
451 1 8.65148 6.56159 3.84053 0 1.10631 -1.2521 -0.518391
461 1 6.35002 7.12777 3.98272 0 0.75904 0.284283 1.5503
465 1 7.76397 9.88459 1.27727 0 0.930758 -0.758296 -1.27243
472 1 5.62629 7.8641 1.04425 0 -0.996916 1.3323 -0.539931
484 1 6.32171 9.31702 4.23245 0 -0.631695 -0.664718 -1.4898
492 1 7.17086 7.4354 4.66738 0 1.32668 -0.766334 -0.844424
499 1 7.41907 9.38539 2.12608 0 0.1447 1.5973 -0.698628
519 1 10.0591 8.13172 2.02531 0 1.41508 0.952523 0.388137
525 1 7.94444 5.90288 2.22722 0 -1.13192 -1.31266 -0.236852
539 1 8.68067 9.76259 0.765254 0 1.39978 0.251225 -1.01877
540 1 8.01743 6.87031 0.34384 0 0.656994 -1.49459 -0.628453
550 1 8.05238 7.04807 2.31227 0 -1.15706 -0.743131 1.08137
569 1 5.67881 10.1529 1.56047 0 1.1054 -1.005 0.910193
588 1 8.37809 6.55185 1.42514 0 1.20196 1.08065 0.669238
593 1 9.57271 6.39391 3.42425 0 1.27957 0.926954 -0.7509
596 1 6.95132 10.1125 4.40546 0 -1.0973 -0.976404 -0.950246
635 1 9.96863 9.83958 0.508594 0 0.495403 1.59016 0.535125
648 1 8.76354 5.88489 2.99707 0 1.13047 0.476161 -1.24728
659 1 9.09281 8.37595 1.61195 0 1.3664 -0.00246479 -1.0924
667 1 6.8834 6.20166 3.67461 0 0.723482 -1.05628 1.19216
671 1 5.9915 8.34468 5.31289 0 1.71458 -0.285026 0.198436
693 1 5.50716 6.55659 3.86714 0 0.908888 0.879348 -1.20875
726 1 6.11493 9.42949 5.28599 0 -0.260768 1.5292 -0.808675
728 1 5.85286 6.53617 1.16371 0 1.73485 0.138005 -0.177883
729 1 7.10423 9.11147 5.33502 0 -1.10978 0.44756 1.27612
754 1 7.72497 8.76566 4.65167 0 -1.16122 0.821088 1.01871
758 1 8.63954 8.60506 0.658956 0 -0.324352 1.62487 -0.561244
760 1 7.07079 5.72065 2.73956 0 -1.10878 1.03584 0.870651
815 1 8.21049 8.67905 3.7631 0 -0.736472 0.393109 1.53736
816 1 6.639 7.69185 0.981281 0 -0.504141 -1.54525 0.646867
831 1 7.95852 7.90481 0.197857 0 -0.765834 -1.06219 1.16002
841 1 9.9067 9.06641 5.41094 0 -0.32826 -0.0461033 -1.71771
845 1 8.01212 5.69469 4.08878 0 1.51826 -0.346109 0.797188
858 1 6.27211 6.22643 4.60621 0 0.365221 -1.68434 -0.300047
869 1 7.83856 6.29022 3.20073 0 1.49264 0.159588 -0.898302
883 1 5.89711 7.99263 4.31433 0 -0.99821 1.35661 -0.472864