ITEM: TIMESTEP
100000
ITEM: NUMBER OF ATOMS
1002
ITEM: BOX BOUNDS pp pp pp
0.0000000000000000e+00 1.0346399999999999e+01
0.0000000000000000e+00 1.0346399999999999e+01
0.0000000000000000e+00 1.0346399999999999e+01
ITEM: ATOMS id type x y z q mux muy muz
1001 2 5.06071 5.25014 5.02488 -13.626 0 0 0
724 1 3.74857 1.36558 2.14645 0 -1.27149 -0.981491 0.693105
50 1 3.30026 3.68886 2.34561 0 1.71065 0.304788 -0.20294
662 1 0.617872 2.35177 3.14982 0 -1.41709 -0.707771 -0.742509
280 1 1.82606 1.39127 1.88366 0 -0.434734 1.37071 0.996279
398 1 1.17398 0.930136 1.20628 0 1.45696 0.160224 0.954982
613 1 2.74405 3.03155 1.51658 0 -1.13479 1.32958 0.0696358
18 1 1.40238 3.30376 3.16996 0 0.993019 0.131259 -1.43425
531 1 0.711352 3.15 0.928895 0 0.218579 0.290858 1.71115
348 1 2.09178 0.557468 0.912679 0 1.22403 -0.343149 -1.20184
528 1 2.90067 1.18792 0.924577 0 -0.368415 1.37685 -1.01438
552 1 1.60957 2.12276 2.69038 0 -0.80062 1.55211 -0.101738
818 1 4.73073 2.30652 5.18416 0 -0.705412 -1.27834 0.96366
373 1 3.3023 3.91161 4.39722 0 -0.253972 0.0969358 -1.72815
545 1 1.09409 2.87766 0.0714086 0 -0.426202 1.38629 0.978233
577 1 2.39236 5.38164 2.71002 0 -1.09744 1.23367 -0.577996
43 1 2.306 3.81274 1.06716 0 0.230295 1.44235 0.9628
207 1 1.09834 1.73278 3.80897 0 1.6823 0.4796 0.0153588
153 1 0.17088 2.02582 0.532741 0 -1.05602 -0.911995 1.05522
386 1 1.9553 1.82817 4.32706 0 1.68057 -0.128467 0.468596
313 1 2.66892 0.891418 1.94429 0 -0.418395 0.649188 -1.56968
507 1 4.21966 3.84041 4.05037 0 0.275245 -1.56786 0.725571
392 1 1.83022 3.05814 0.640605 0 0.271088 1.09948 1.33344
972 1 1.14747 1.76403 0.396071 0 -1.53444 0.839586 0.0313
619 1 0.224516 1.26915 3.5002 0 0.959358 1.46062 0.0813296
3 1 1.13664 3.95486 2.38497 0 -1.59605 -0.716131 -0.0138527
220 1 1.00011 0.355793 3.66194 0 -0.478595 1.40754 0.922058
573 1 1.82544 0.780954 4.1062 0 1.62637 0.133784 -0.630421
104 1 0.8054 1.84633 1.90602 0 -0.633976 -1.36941 0.884985
290 1 3.79856 1.23886 4.30484 0 0.229565 1.40297 1.0195
476 1 0.066051 3.77122 0.350985 0 -0.518894 -1.07095 1.28227
623 1 2.48646 3.03742 4.60138 0 1.02539 -0.510743 -1.32217
418 1 3.96887 4.12077 2.933 0 0.733046 1.45921 0.627497
282 1 1.46346 0.864166 2.97179 0 -0.360521 -1.66315 0.405402
598 1 1.74638 3.05879 2.20436 0 1.33931 1.03197 -0.449078
697 1 1.42094 2.39466 1.36189 0 -1.62008 -0.657508 0.0586212
475 1 1.04179 0.0659666 0.596978 0 -0.557516 1.27188 1.0639
836 1 2.21318 2.83079 3.66342 0 0.567266 -1.08717 -1.24767
244 1 2.22704 4.25055 2.7267 0 -0.900998 1.40249 0.530688
634 1 3.03175 1.01149 2.876 0 -1.55765 0.0505783 -0.79472
510 1 1.29717 3.83087 1.38783 0 -1.44808 0.890175 -0.413582
270 1 2.4686 1.98425 3.15273 0 -0.574883 -0.692305 -1.50021
91 1 1.47158 3.01395 4.47751 0 1.43246 0.481458 -0.881286
596 1 3.21335 2.08313 2.45616 0 -0.422236 0.586796 -1.59304
319 1 4.31693 5.34553 2.85068 0 -1.31956 -0.787875 0.835716
948 1 0.367771 0.0215212 1.3666 0 -0.450519 -0.395771 1.64341
794 1 3.70784 2.9345 2.84582 0 -1.4996 -0.405584 0.804419
116 1 0.721353 4.60918 1.73535 0 -0.374564 1.05865 -1.3414
307 1 2.13579 1.64695 0.666563 0 -1.6342 0.283042 -0.556498
209 1 4.64084 3.34817 2.58806 0 -0.69425 -1.37301 0.832624
960 1 2.69124 1.98201 1.56326 0 0.164218 0.537724 -1.65659
511 1 3.93086 0.639393 3.34285 0 -0.69381 0.73136 -1.42973
787 1 3.92 4.45038 2.01458 0 -0.383239 1.67581 0.324326
736 1 0.816693 4.55862 0.718416 0 -0.192306 0.47665 -1.67219
857 1 2.88247 2.91031 0.445571 0 -0.0577761 1.29424 1.17559
725 1 1.87327 4.5156 0.620915 0 -1.57698 0.477148 -0.588101
743 1 0.378285 3.5016 2.93196 0 1.06576 -0.217762 1.37008
305 1 3.73382 4.78179 3.71339 0 -0.344573 1.2444 1.18031
63 1 3.99591 5.31842 1.58047 0 -1.59926 0.587378 -0.397177
777 1 3.78591 1.82264 1.11848 0 -0.600225 1.08588 1.23328
748 1 4.19361 1.75662 0.231638 0 -0.790552 0.0961354 1.55762
146 1 4.12893 2.5196 1.94573 0 0.279278 -0.36848 1.68719
686 1 1.75751 0.381526 2.08521 0 1.55911 0.0272202 0.792988
222 1 3.48494 0.272885 4.24254 0 0.765792 1.55378 0.244417
152 1 0.443702 0.0292384 2.77834 0 -0.247201 -1.73185 0.00110805
676 1 3.88893 2.20953 4.57487 0 0.841393 1.52549 0.159204
815 1 3.19836 2.73322 3.95318 0 1.32682 0.315072 -1.09576
171 1 3.90092 2.78113 0.980475 0 1.29528 0.426616 1.09574
131 1 4.80376 2.34093 2.68258 0 0.537572 -1.66045 0.119744
844 1 2.74283 0.989208 3.79722 0 1.72666 -0.267693 -0.0859563
394 1 3.44828 1.88534 3.43909 0 -0.921539 -1.06942 -1.0332
898 1 4.2368 2.85439 3.79303 0 1.69032 -0.279382 -0.353793
126 1 4.22691 3.50517 1.6614 0 0.629535 1.58383 0.394422
226 1 4.14071 0.881074 0.75483 0 -0.215543 0.774528 1.55372
506 1 4.71174 0.909959 4.00725 0 -1.08692 -0.325341 1.3316
608 1 3.15888 3.8419 3.42514 0 0.959737 0.912766 -1.14288
581 1 0.43766 4.52169 2.98537 0 -1.6744 -0.0394769 0.505207
547 1 0.701541 5.28784 3.68261 0 -0.204213 0.387864 1.69359
673 1 4.40912 1.46671 3.01375 0 1.26773 -0.91138 0.789087
357 1 4.83216 2.08013 1.03044 0 -1.08812 -1.35831 0.17718
572 1 2.78592 0.931898 4.8572 0 -0.0590776 -0.618341 1.63541
631 1 1.18335 2.04634 4.91095 0 1.7462 0.0099378 -0.105375
409 1 0.487355 2.79914 4.29939 0 0.664419 -1.47597 -0.663669
96 1 2.32691 0.273086 3.00305 0 0.913325 -1.31371 0.707393
198 1 2.06263 2.45499 5.34003 0 0.773767 1.49803 0.466452
387 1 1.09644 3.87476 3.9308 0 1.46217 -0.882417 -0.379219
266 1 3.23827 4.92697 0.998557 0 -0.185634 -1.6243 -0.622556
692 1 5.16391 0.720615 5.38756 0 1.50739 -0.795439 0.394268
896 1 4.65799 1.28114 1.60317 0 -0.430535 -1.32623 1.05648
814 1 0.535572 2.94289 1.86957 0 -0.319811 -1.71029 0.181754
410 1 3.36917 3.75097 1.23777 0 1.7326 -0.205443 -0.127609
39 1 4.73665 4.54106 3.4598 0 0.138417 -0.150845 1.73738
423 1 4.92939 2.99975 0.723032 0 0.918171 -1.48777 -0.0624406
929 1 4.91021 2.13065 4.04685 0 0.191813 -1.20673 1.25197
816 1 5.2204 2.97259 3.49081 0 0.82299 -1.46214 0.495215
652 1 1.67515 4.85626 2.18256 0 -1.67161 0.0126546 -0.515718
472 1 2.57493 3.2378 2.73502 0 0.652767 1.62301 0.0112852
492 1 4.48558 4.33658 5.11075 0 -0.330183 1.57473 -0.68673
449 1 3.1873 4.72592 2.62554 0 -1.62038 0.0637491 0.656272
858 1 2.11507 4.05075 3.88973 0 1.62641 0.0570361 -0.641828
119 1 0.664478 4.79746 4.91139 0 -0.774261 0.472043 -1.49603
291 1 2.59659 4.61847 1.70179 0 -1.22111 1.24087 0.171893
799 1 4.086 0.421095 1.73126 0 -1.24225 -1.23101 0.0429995
782 1 2.76523 4.12702 0.276413 0 -0.101697 -1.20707 1.26216
880 1 1.70583 4.22304 4.86865 0 -0.511985 0.458098 -1.60886
678 1 4.84482 4.79287 1.58213 0 -1.39075 -1.02844 -0.261798
744 1 0.790734 1.02079 4.79582 0 -1.25436 0.746845 -0.963957
250 1 4.33175 1.36353 5.22426 0 0.746387 -1.42547 0.686552
576 1 1.31308 3.96819 0.0432913 0 -0.40346 1.60508 -0.566855
660 1 2.91612 1.86126 4.5391 0 0.871617 0.180528 -1.50602
766 1 4.21486 0.465881 4.90794 0 -1.05238 -1.08634 0.879064
845 1 0.435678 0.874136 2.18865 0 0.130613 -1.43237 0.995813
229 1 0.287575 1.13872 0.780215 0 0.879174 -1.42893 0.495579
986 1 5.40803 1.58148 2.44489 0 0.890333 -1.30367 0.753751
544 1 4.97678 3.36172 4.54938 0 0.756301 -0.954703 1.25577
739 1 5.23231 2.60729 1.69668 0 -0.424762 -1.45632 -0.871269
190 1 5.21765 3.66979 1.47209 0 -1.57309 -0.744674 0.176788
238 1 4.91373 0.65562 2.82267 0 0.390934 -1.47316 0.858708
435 1 5.26846 0.0972462 1.14727 0 -1.36783 -0.880418 0.643676
425 1 0.0383839 4.55962 4.12452 0 -0.443118 -1.1994 -1.19394
260 1 5.30483 4.2162 2.59259 0 -1.36981 -0.799989 0.737587
891 1 4.51903 4.03926 0.77724 0 -0.0792429 -0.281506 -1.72478
591 1 5.19224 4.3483 4.3837 0 -0.141343 -0.173823 1.735
491 1 0.269111 5.41728 0.275666 0 -0.461584 -0.751786 -1.51068
786 1 1.42176 4.58254 3.17077 0 -1.52643 0.531303 0.669415
42 1 4.00029 5.30774 4.6744 0 1.58213 0.745667 -0.0353421
359 1 3.37368 5.36888 0.00351569 0 -1.42524 0.858208 -0.540886
778 1 1.45292 5.42655 1.3669 0 -1.26835 1.07363 -0.546833
561 1 1.2989 5.13758 0.0228259 0 -0.468003 1.50722 -0.754762
774 1 2.59451 0.619984 0.0651957 0 0.423649 -0.913683 -1.43042
827 1 2.64337 5.12932 3.74777 0 0.204601 1.26537 -1.19054
745 1 3.39868 0.118061 1.12102 0 -0.237006 -0.789424 -1.54306
847 1 2.50004 5.38211 0.501302 0 0.352881 -0.015158 1.71337
402 1 3.38561 0.0844892 2.68574 0 0.932816 -0.832256 -1.22377
462 1 2.82601 4.96534 4.75201 0 -0.142793 1.58457 -0.72742
243 1 4.75002 5.41963 4.03392 0 1.42398 0.391994 0.937566
214 1 1.85969 5.01603 4.38451 0 1.4677 0.927217 0.215666
320 1 4.99476 0.027957 3.61843 0 0.553033 -1.00148 1.32348
113 1 5.27633 5.33317 2.98687 0 -1.64233 0.421868 -0.43034
912 1 1.44429 0.195947 4.82445 0 0.0442938 1.68852 0.45535
934 1 2.01508 3.44806 5.42452 0 0.529677 1.0697 -1.2789
230 1 3.11642 3.60697 5.40735 0 -0.525293 0.362791 -1.62876
427 1 4.09075 3.33539 4.93802 0 0.509868 0.471938 1.60552
195 1 3.12607 1.97836 0.316292 0 -1.35668 1.05516 -0.326294
627 1 3.7652 3.81996 0.290316 0 -0.405531 -0.141321 -1.69587
514 1 1.79416 1.36279 5.44503 0 1.6389 0.595546 -0.140464
352 1 0.472447 3.64605 4.85446 0 0.893601 -0.840745 -1.24701
870 1 4.13436 4.84457 0.237648 0 -1.19059 1.2806 -0.0546085
302 1 5.04971 0.0518031 4.51522 0 -0.458301 1.54785 0.674185
379 1 5.05892 5.1257 0.529281 0 -1.12253 -1.07517 0.802706
881 1 10.2022 5.07373 2.34968 0 0.748537 0.349022 -1.54217
254 1 10.1928 3.50812 1.26459 0 -1.31057 -0.534582 1.02812
127 1 9.94753 1.98471 1.36922 0 -1.24587 0.488011 -1.12696
565 1 9.19441 3.78789 0.875078 0 -0.283748 1.05843 1.36368
637 1 10.3411 5.05573 1.14199 0 0.15842 1.71732 -0.293475
584 1 10.062 1.92148 2.72535 0 -1.234 -1.10266 -0.567273
47 1 10.2252 2.17881 3.79796 0 -1.73071 0.237124 -0.0938605
118 1 9.13921 0.720321 4.06818 0 -0.770516 1.54754 -0.268013
789 1 9.25561 2.49339 3.9797 0 -0.06544 1.73774 0.190698
975 1 10.2696 0.184463 0.446882 0 0.501827 -1.56284 0.605059
770 1 10.2186 2.70843 5.07327 0 -1.10137 1.35917 0.00644978
459 1 5.4957 1.58919 5.0614 0 0.186376 -0.915216 -1.4792
460 1 5.58459 3.88054 0.340665 0 1.57461 0.49857 0.576561
656 1 5.60032 2.80527 5.09318 0 -1.28756 -1.14006 0.320725
755 1 6.20663 3.3636 1.40434 0 -1.37554 0.276956 1.04479
287 1 9.90049 2.87834 2.13955 0 -1.15918 0.898432 -0.953692
231 1 9.8893 2.9336 0.266571 0 1.43259 -0.964115 -0.280308
988 1 6.57665 1.38914 4.63499 0 1.45686 -0.884186 0.395195
936 1 9.92331 0.586863 3.15413 0 1.36315 1.08985 0.12024
292 1 9.37701 0.0376809 2.36491 0 0.329027 -1.19295 1.23654
41 1 9.76357 4.39519 3.33236 0 -1.72605 0.226538 -0.172725
336 1 7.94549 1.58663 1.72048 0 0.0983404 -1.64402 0.589859
804 1 6.04649 2.36247 3.21728 0 0.432823 -1.45332 -0.872306
904 1 9.84334 2.9949 3.18699 0 -0.113956 -0.787323 -1.55806
893 1 9.4664 1.18605 2.42798 0 -1.57611 -0.691782 -0.312616
380 1 10.3211 3.87967 2.13645 0 1.26297 -1.15309 0.368377
732 1 8.92191 1.09641 1.49147 0 0.685254 1.05206 -1.21819
16 1 9.46619 1.75447 0.347039 0 0.22671 -1.69726 0.358187
661 1 9.49366 1.4606 3.51415 0 -1.54113 -0.374852 -0.738117
558 1 6.76271 4.41773 1.10583 0 -0.0387106 -0.271999 1.72769
643 1 8.81822 2.14788 1.922 0 0.529785 -0.554811 -1.57223
919 1 9.50937 0.763424 0.747684 0 1.5303 -0.77603 -0.341109
391 1 8.99836 3.58149 3.64188 0 -0.379558 -0.0867502 -1.70552
501 1 9.15808 3.2462 4.71398 0 1.17871 1.20749 -0.461536
133 1 7.44732 4.2497 0.243249 0 0.214883 -0.979757 1.43328
54 1 8.74647 3.45979 1.75812 0 -1.34394 -0.619562 -0.932937
867 1 8.66333 0.804783 2.94722 0 -0.00602639 -0.900828 1.49962
395 1 5.69833 3.22633 2.31326 0 -1.08049 -1.36466 0.175035
571 1 7.93857 2.45634 2.61739 0 -0.831792 0.587575 -1.42242
142 1 6.51195 0.167923 2.27416 0 -0.582791 -1.6489 0.0434172
134 1 7.28041 2.16699 3.39796 0 0.0248623 -1.03956 -1.4068
802 1 8.68245 1.8087 2.96891 0 -0.650602 1.23775 1.05123
74 1 7.19083 3.1218 1.47814 0 0.399759 -0.707533 -1.54919
224 1 8.86759 3.93944 5.37747 0 0.858221 0.717046 -1.34525
422 1 7.68975 4.91697 1.30758 0 1.04522 0.813978 1.14252
809 1 7.32631 3.44061 3.35657 0 -1.5431 -0.691325 -0.448674
486 1 5.99857 2.8792 0.437175 0 1.60292 0.649271 -0.263637
711 1 8.46615 1.60878 0.765145 0 -1.12437 -0.707829 -1.13805
681 1 7.78283 0.618112 1.22567 0 1.09639 -1.21587 -0.616432
141 1 6.99057 0.976323 1.87194 0 -0.743714 -1.58066 0.0938665
655 1 8.10926 4.13107 3.59786 0 -1.37288 0.210514 -1.06362
853 1 8.7854 2.42683 0.119195 0 1.06987 -1.20176 -0.686686
595 1 6.66335 3.90233 3.9028 0 -1.72095 -0.311169 0.043763
737 1 8.4724 1.64543 3.89445 0 -0.267026 0.654964 1.60004
413 1 7.28109 3.08778 0.0611297 0 -0.115753 -1.74429 -0.0667026
457 1 8.90183 4.83989 1.06371 0 0.261379 1.06896 -1.35993
798 1 6.4304 1.79518 1.05422 0 -1.21848 -0.445565 -1.17353
813 1 7.37173 2.24826 0.92623 0 -1.25923 -0.471651 -1.11905
245 1 8.13567 2.84968 3.71908 0 0.660043 1.62008 -0.00842365
645 1 7.77631 1.39045 2.86849 0 1.14499 0.348603 -1.27588
94 1 8.10655 2.68557 1.43253 0 -0.587743 -1.51452 -0.649
910 1 5.61229 3.93676 3.58182 0 -1.6158 0.177555 0.646575
159 1 6.1359 2.30485 2.04242 0 -0.0403042 0.183019 -1.73933
378 1 8.91528 3.92161 2.66592 0 -0.763795 1.0823 -1.14265
265 1 8.9479 2.7707 2.6566 0 -1.15665 -1.10326 -0.710904
973 1 6.36557 5.22414 0.690343 0 -0.65103 -0.823735 1.39929
762 1 7.12001 1.97268 1.93874 0 0.663759 -0.093076 -1.61591
742 1 6.2428 3.02399 4.04243 0 0.0458296 -1.60315 -0.698716
968 1 8.39333 4.36223 1.75616 0 1.68842 -0.183705 0.419391
424 1 9.8808 3.6996 4.09848 0 0.751654 -0.226029 -1.56343
19 1 7.17232 4.59146 3.31873 0 -1.4977 -0.280932 0.859293
588 1 7.84405 3.71463 2.51495 0 -1.69558 -0.0559114 -0.426933
416 1 5.59412 1.36407 1.18803 0 -1.24352 -1.2304 0.0125505
800 1 6.36021 0.715007 1.12251 0 -1.0137 1.01809 -0.99815
908 1 8.30646 4.37245 4.54579 0 -1.13788 -1.03794 -0.829642
529 1 5.80494 4.55099 1.2488 0 -1.4637 -0.254007 0.923828
148 1 6.18243 4.73194 3.5841 0 -1.25602 0.0575839 1.21634
601 1 6.43784 1.2651 0.217892 0 -0.230699 1.52825 -0.819525
873 1 9.18775 2.54861 1.04989 0 -1.20214 0.586892 -1.1273
107 1 5.6432 1.8359 0.20455 0 0.0168891 1.65498 0.566696
194 1 7.91692 0.451852 2.24239 0 1.24077 -0.732885 -0.991851
779 1 7.89182 0.649197 4.32475 0 -0.456881 1.64531 -0.380292
241 1 9.95394 0.654274 1.68356 0 -0.589667 0.0413042 1.64651
979 1 8.67571 0.181816 1.53002 0 0.663945 1.54533 -0.481181
995 1 9.71913 0.489493 5.13964 0 -1.05573 0.581514 1.26794
73 1 6.88832 2.77776 2.63214 0 -1.42903 -0.521851 -0.863681
28 1 7.72611 3.92338 1.25845 0 -0.0619597 1.40664 1.03824
702 1 5.80691 0.736783 2.03407 0 1.133 -1.30859 0.253621
199 1 9.35263 4.54309 4.70376 0 1.25521 0.980567 -0.72342
612 1 5.49987 1.28892 3.4373 0 0.367551 -1.67969 0.322399
690 1 7.87978 3.45285 4.46112 0 -1.25489 0.0881481 -1.21568
517 1 6.03691 2.08431 4.22354 0 0.394341 -1.3755 -1.00642
666 1 6.80405 1.40997 2.92488 0 1.56682 -0.313113 -0.712354
368 1 7.2932 2.58813 4.29796 0 0.337344 0.117997 -1.71251
382 1 9.54835 1.98405 4.73867 0 0.584178 -0.333069 -1.61499
192 1 8.14291 0.184174 3.44016 0 -1.35209 -1.05161 0.355491
281 1 8.82553 1.21325 4.87723 0 -0.123583 -1.25665 1.21077
55 1 7.32936 4.69632 4.29307 0 -0.769002 1.38641 -0.739531
426 1 6.04439 0.607931 3.09048 0 1.74843 0.0463168 0.0352764
869 1 9.46386 5.39679 1.83276 0 -1.63845 -0.600737 -0.122395
64 1 8.1451 5.42579 3.59714 0 0.486367 -0.477768 -1.61108
851 1 9.51532 4.36449 1.70063 0 1.58907 -0.398487 0.613563
922 1 6.38046 3.76807 2.86042 0 -1.58946 0.0283698 -0.730209
562 1 7.9787 4.69527 2.73137 0 -1.61994 -0.132973 -0.646925
296 1 9.65559 4.55966 0.337192 0 1.52987 0.826043 -0.193802
79 1 8.93222 4.66719 3.65713 0 -1.60243 -0.697263 0.0802034
442 1 7.28138 1.27747 3.85088 0 0.816236 0.157678 -1.53925
642 1 8.44603 0.515132 0.37799 0 0.888953 -0.795082 -1.27985
694 1 7.48413 2.42422 5.42006 0 -0.981845 1.40518 -0.349054
677 1 5.68998 0.857399 4.29403 0 1.31271 -0.978569 -0.616109
887 1 8.43762 5.32452 4.60245 0 -1.22198 -1.21348 0.307606
85 1 10.0374 5.40166 3.43131 0 0.452274 1.3659 -0.995066
525 1 7.12638 0.359636 3.13073 0 0.760365 -0.860035 -1.32007
453 1 6.19076 4.76334 2.57307 0 -0.895207 -0.831313 1.25217
620 1 6.47847 5.31711 1.83618 0 -0.167124 -1.28062 1.18003
982 1 6.84184 3.91786 1.95163 0 -0.792597 -1.21756 0.97454
324 1 7.42654 5.40193 0.229108 0 -1.56178 -0.785732 0.0621514
269 1 9.07695 5.36222 2.93184 0 1.2948 1.12157 0.354923
165 1 8.40448 5.40719 0.458452 0 -1.50968 -0.497153 -0.730826
915 1 6.64845 0.600266 4.0182 0 0.462497 -0.520428 -1.60488
498 1 6.54811 0.172754 0.0132001 0 -1.58977 0.610184 0.400897
593 1 6.29837 0.601118 5.3459 0 1.03356 1.05356 -0.939234
519 1 8.21438 3.29558 0.196515 0 0.710136 -1.59829 0.0395024
436 1 7.51977 0.766472 0.255273 0 -0.464084 1.19918 1.18617
741 1 6.54916 3.72393 0.173823 0 1.63533 0.225131 0.579157
879 1 6.04085 4.75897 4.98392 0 0.393 -1.19742 -1.21332
574 1 10.1085 1.2231 4.4655 0 -0.857784 -1.48818 -0.331551
46 1 7.60418 1.93889 0.0518123 0 0.731904 0.261818 -1.56722
942 1 8.57423 2.36361 4.7033 0 1.08634 1.31427 0.391114
917 1 10.182 4.20813 5.39387 0 1.05952 -1.23806 -0.636415
432 1 7.76587 1.50022 4.93243 0 -0.388395 1.11139 1.29398
925 1 8.25662 3.14328 5.3078 0 -0.101362 1.03938 -1.4035
53 1 7.05215 3.41636 5.37102 0 -0.853354 1.26645 0.853396
213 1 6.08958 3.6801 4.7832 0 0.198112 -1.63479 -0.590441
183 1 6.49012 2.3157 5.12266 0 -0.749601 0.983869 -1.23713
363 1 7.23811 0.598271 5.04311 0 1.37992 -0.977592 0.447816
25 1 6.9269 5.35092 5.12536 0 -1.67463 -0.428353 -0.269317
232 1 2.68548 10.2777 1.84848 0 1.18612 1.26102 -0.251691
976 1 2.10262 9.58192 2.2303 0 0.972686 0.342445 -1.41316
610 1 2.32369 9.42309 4.80357 0 0.0419531 -0.516099 1.67101
167 1 4.35727 10.0379 0.887695 0 -1.12687 -1.32361 -0.196566
894 1 1.15299 9.65134 4.65311 0 -0.0808173 1.74484 0.0970239
156 1 1.41013 10.0401 2.87011 0 -0.0157703 -1.13681 1.32959
984 1 2.73175 10.2869 4.7738 0 0.976513 0.000677488 -1.45149
349 1 5.03261 5.69039 1.98947 0 -0.705208 -1.57901 -0.264208
765 1 0.193705 9.456 3.36186 0 -0.595016 -1.37029 -0.910316
701 1 0.176963 5.65943 4.66133 0 -1.73542 0.099263 0.197109
834 1 3.53578 9.63266 4.53157 0 0.851881 0.600439 1.40505
339 1 4.41596 6.40623 2.89738 0 -1.39501 -0.423367 -0.967011
583 1 0.961291 5.96504 0.757721 0 -0.644015 0.799632 -1.41642
196 1 1.10807 9.12676 3.51596 0 -1.24646 -0.230321 1.20569
808 1 1.86459 10.0097 1.22011 0 0.834657 1.2894 -0.83738
189 1 5.33657 9.45314 3.15763 0 0.972733 -0.672423 -1.2892
996 1 1.95922 9.99555 4.00021 0 0.0354576 0.449598 1.69027
871 1 1.10781 9.99669 1.90301 0 0.800949 1.55526 -0.00665984
651 1 4.36144 9.19961 0.0709949 0 0.967527 -0.857446 -1.17859
480 1 3.90111 9.89524 1.98257 0 -0.577023 -1.62046 -0.318675
323 1 4.78388 9.44565 3.95607 0 -0.155731 0.0283016 -1.74222
114 1 2.29737 9.10792 0.566866 0 -1.47061 0.375026 0.870099
810 1 1.92804 6.49337 1.21043 0 -0.649962 1.27257 1.00922
164 1 3.20545 8.32344 0.595311 0 -1.30681 -0.0292903 -1.16266
338 1 2.1712 5.92811 4.52834 0 -0.510681 1.61015 -0.455004
992 1 2.78604 6.8139 1.7233 0 1.39931 0.933245 -0.481011
835 1 2.53322 6.44781 2.87363 0 -1.60013 -0.700482 -0.0964129
966 1 1.82738 5.8938 3.48035 0 -1.11086 0.991185 0.918664
365 1 1.66892 6.00026 2.29413 0 0.649988 1.33053 -0.931448
388 1 4.13034 9.05479 2.73701 0 -1.47948 -0.367184 0.858323
859 1 0.574707 6.5776 2.35973 0 0.813284 -0.486719 1.4704
300 1 3.16758 9.28467 2.59362 0 -1.39831 -0.658311 0.819599
750 1 2.3747 5.72797 1.74939 0 -0.648619 1.49763 -0.62991
353 1 4.62206 7.51335 3.11077 0 -0.96343 -0.63669 -1.31409
467 1 2.20551 9.24797 3.23472 0 -1.47256 0.863169 0.383289
933 1 0.981857 7.7466 2.19926 0 -1.72583 0.235087 -0.163185
872 1 0.219322 8.76468 2.6362 0 0.601097 -0.833007 -1.41604
889 1 0.970196 9.29329 1.21435 0 1.27078 1.17625 0.248921
624 1 0.758088 8.42872 3.96071 0 -1.09392 -0.0892434 1.36226
977 1 2.86125 8.42096 3.15097 0 -0.501483 0.319647 -1.64522
351 1 2.69153 7.40124 2.54506 0 -1.61075 -0.34195 0.590724
95 1 2.30926 8.62034 2.42399 0 -1.67416 0.0360481 -0.506255
342 1 3.24445 9.43377 1.03347 0 -0.361701 -1.25989 -1.15855
201 1 1.79215 8.68435 1.6125 0 -0.7693 -1.52445 -0.380299
629 1 4.55205 6.74841 4.51847 0 1.32679 0.102872 -1.13553
885 1 2.78434 6.75546 0.638187 0 -1.68568 -0.394692 -0.251172
527 1 0.0746679 6.33046 0.915811 0 -1.42389 -0.945194 0.373561
452 1 0.72306 5.59729 2.71701 0 0.42118 -1.43636 0.905478
670 1 1.60329 6.96509 2.09174 0 -0.211623 1.72351 -0.212442
412 1 1.1892 5.86969 4.39733 0 -1.3631 0.0508865 1.09534
722 1 4.15125 5.85817 0.508618 0 0.0859219 0.804017 -1.55131
444 1 3.20882 8.41912 1.90439 0 0.339962 1.29253 1.1288
512 1 1.07782 7.40616 0.353266 0 -0.757469 0.3444 -1.53884
569 1 1.2791 9.06023 2.39096 0 0.342005 1.64624 -0.483039
169 1 2.72626 10.0774 0.422753 0 -0.293485 -0.94763 -1.44092
772 1 2.63001 7.81868 1.49543 0 1.05656 1.2198 0.675401
918 1 4.17328 7.81925 5.02375 0 0.142445 -0.0850347 1.74152
901 1 0.461991 8.3961 1.41839 0 0.47927 1.25818 -1.117
580 1 1.68669 8.87479 4.25997 0 1.43367 0.0356872 1.00185
886 1 3.33251 6.08434 1.21995 0 0.428903 0.254518 -1.6768
34 1 3.8366 7.32948 2.4445 0 -0.689106 -0.380346 -1.56233
130 1 0.659774 7.13342 1.28553 0 -0.7199 0.0530189 -1.59353
877 1 3.94104 8.25251 3.26065 0 -0.722512 -1.59098 0.0845238
728 1 1.6141 8.33358 3.37562 0 -0.397044 1.29162 1.11107
182 1 1.93541 7.48214 3.06387 0 -0.628141 1.46142 0.728072
575 1 3.27532 7.9592 4.4689 0 1.4962 0.585951 0.691696
931 1 1.09041 7.10683 4.0641 0 -1.12517 -0.116885 -1.33444
205 1 1.47181 7.72714 1.30898 0 -0.948851 -1.18661 0.867201
92 1 4.19415 8.13578 0.66403 0 -0.861594 0.0180744 -1.52241
356 1 3.58866 7.28191 1.308 0 0.318328 1.11354 -1.31115
361 1 4.20598 7.62538 4.01789 0 -0.453705 -0.945591 1.40015
406 1 5.25406 6.27067 5.1392 0 -1.44795 -0.976949 0.0969969
470 1 4.60582 7.42089 1.78463 0 0.420997 -1.48602 -0.821525
535 1 2.28514 7.81994 0.539839 0 0.242783 -1.28651 1.16032
636 1 0.314774 5.82943 1.81109 0 0.297606 1.69964 0.288216
826 1 1.1366 6.79942 3.10791 0 1.35113 1.00363 -0.47703
314 1 3.53852 6.78016 3.18275 0 -0.936996 0.236741 -1.45822
502 1 3.75516 9.21418 3.66781 0 0.000763333 -1.24586 1.2281
202 1 5.11191 8.4781 0.236882 0 1.62617 -0.644595 0.0215252
227 1 5.0472 6.37425 3.73145 0 0.406607 -0.301356 -1.67459
108 1 0.769345 7.85873 3.17565 0 -0.351165 1.701 -0.209015
8 1 2.11688 6.89875 3.84779 0 0.799128 1.54798 0.15987
505 1 3.82482 6.89328 0.398073 0 -0.976124 0.199656 -1.43796
523 1 3.94829 6.19271 3.91051 0 1.58812 0.210262 -0.702908
32 1 4.29352 6.36333 1.65816 0 0.214771 -0.857351 -1.50971
367 1 4.14841 9.15316 1.19382 0 -0.316327 -1.5355 -0.776268
664 1 1.6594 6.81636 4.85051 0 -1.4056 0.352458 -0.980032
614 1 2.94132 10.0098 3.57156 0 1.33598 0.0560799 1.12801
100 1 2.94193 6.32452 3.88589 0 0.52033 1.66911 -0.0609975
621 1 0.714053 6.6374 4.92471 0 -1.50694 0.377771 -0.80426
540 1 0.71677 9.50486 0.113959 0 -0.0270644 -0.452583 1.68963
615 1 1.06201 8.73256 4.9662 0 0.350687 1.4052 -0.981237
355 1 3.32713 6.06536 4.87193 0 0.303653 0.149362 -1.71636
900 1 4.04146 8.68174 4.55384 0 -0.0424181 0.465699 1.68574
899 1 4.78029 8.46633 3.72878 0 -1.71272 -0.311279 -0.173495
474 1 4.20177 9.95236 3.1331 0 -1.26112 -0.965678 0.733103
56 1 4.78091 6.6641 0.647565 0 -1.47135 -0.0060951 -0.946312
628 1 4.27713 8.35134 1.93072 0 0.868798 -1.16015 0.979615
115 1 5.07374 8.17447 2.49818 0 0.477982 -1.19486 1.18501
301 1 3.42303 5.66927 3.05113 0 -0.475421 1.676 0.159416
781 1 5.18989 8.27228 1.4294 0 -1.15459 -1.1888 0.56041
428 1 5.40911 6.48962 2.60989 0 -1.67947 -0.290907 0.393885
632 1 3.46135 6.20336 2.25902 0 -0.587275 -0.503697 -1.56901
913 1 0.43576 6.37381 3.68776 0 1.0737 0.633594 -1.22724
854 1 1.80196 9.84709 0.0960125 0 -1.5928 0.343167 -0.636897
991 1 0.373469 8.37663 0.222947 0 -0.918411 0.803942 -1.25324
626 1 1.37208 8.59282 0.365058 0 0.409027 -1.60948 0.550143
944 1 2.90826 7.52434 3.63305 0 -0.12291 1.15852 1.30503
473 1 4.80147 9.30427 4.96692 0 -0.248331 1.54478 -0.782556
468 1 0.156927 9.14103 4.82904 0 0.0712553 1.47635 -0.935797
360 1 0.173699 7.50004 3.85051 0 -1.69425 0.423477 -0.102929
233 1 5.34428 6.76589 1.47399 0 0.00795328 -1.14138 -1.32574
892 1 4.87904 10.1004 2.2496 0 -1.4234 0.0369305 1.01635
990 1 5.37186 7.54207 0.598525 0 0.260026 -1.66201 -0.480098
672 1 5.05426 9.13323 2.22489 0 -1.59613 -0.31488 0.643136
12 1 5.20371 7.50685 3.93629 0 -1.20063 0.785777 -1.00072
185 1 5.31202 9.30573 1.10621 0 -0.434909 -1.69284 0.0743669
939 1 0.250939 9.97858 5.26368 0 -0.414449 1.57593 -0.636446
485 1 2.54473 8.49468 4.92995 0 1.07417 0.491621 1.29029
962 1 1.29233 5.76775 5.46444 0 -1.50772 0.705908 0.537467
71 1 3.84145 9.9248 5.39857 0 1.03038 0.233176 1.3944
727 1 1.69625 6.58651 0.19937 0 -1.39226 0.971622 -0.421866
33 1 2.30803 7.49589 5.44543 0 -1.55122 -0.645292 0.487568
958 1 2.83297 7.04076 4.61104 0 -0.780008 1.09547 1.1189
709 1 2.10512 7.87214 4.29788 0 0.629544 1.42977 0.787288
609 1 5.07233 8.27854 4.68217 0 -0.697954 1.46896 0.644523
617 1 3.11265 9.23083 5.33096 0 1.57618 0.758953 0.0074513
911 1 0.21929 8.13644 4.83834 0 -0.228228 1.69624 -0.362048
251 1 1.08372 7.62721 5.14675 0 -1.34471 -0.582336 -0.955532
605 1 10.188 10.0246 4.17189 0 -1.12197 -0.0505561 -1.34128
125 1 9.62875 10.1961 1.17244 0 -1.24916 -0.501959 1.11716
937 1 8.70654 9.85124 2.96162 0 -0.846699 0.907151 1.23312
945 1 9.18715 9.47856 1.75783 0 -1.13421 -0.745006 1.10405
420 1 7.16456 9.35878 0.460021 0 -1.25368 -0.029602 1.21976
582 1 7.65849 9.91995 1.68423 0 -0.04066 -0.785155 -1.56278
538 1 7.75045 10.0851 0.340697 0 -1.3769 0.970666 0.471559
247 1 6.68812 9.52418 2.20111 0 -1.50177 -0.744692 0.500518
261 1 5.77753 5.48368 4.2072 0 -0.902977 0.973007 1.13943
483 1 6.69453 5.78713 2.87375 0 -0.985273 0.0090924 -1.44553
325 1 8.50501 10.2193 4.55595 0 -0.704966 1.00146 1.2492
757 1 10.2972 9.51896 0.753708 0 -0.222876 -0.542366 1.6482
208 1 9.1118 6.31536 1.24951 0 -0.64505 -1.32989 -0.935788
234 1 10.2953 7.33813 2.54747 0 -0.874778 -0.863082 -1.24509
242 1 10.0219 7.74054 1.629 0 1.55223 0.735097 -0.332579
587 1 9.80974 5.99658 2.64251 0 1.44635 0.0364842 -0.983432
143 1 10.2563 7.3238 0.699885 0 -0.240007 0.57111 -1.63604
248 1 10.1076 9.05363 1.72167 0 -0.900009 -1.48448 0.216121
273 1 9.80015 6.75999 1.76533 0 -1.33695 -0.195977 -1.1111
883 1 9.67377 8.21642 0.530741 0 0.30085 0.729425 -1.56135
649 1 9.9315 8.64408 3.89409 0 -1.56619 -0.107536 -0.771935
364 1 5.51432 5.9397 0.963528 0 -0.829075 -0.697733 -1.37339
780 1 6.07656 7.82772 2.07311 0 0.253471 -1.63585 -0.56582
994 1 5.72392 8.73758 3.77096 0 -1.56169 -0.368982 0.696684
821 1 7.64131 9.7619 2.68951 0 -0.312235 -0.708415 -1.56878
439 1 7.45336 5.53339 2.08383 0 -1.45766 0.944929 0.206754
874 1 8.43697 9.14229 2.30658 0 -1.72163 -0.218249 -0.220785
369 1 8.61587 8.64477 1.39023 0 -1.30639 0.957346 -0.661237
455 1 10.1767 9.89913 2.1974 0 -0.94714 -1.05506 -1.02478
318 1 7.13385 9.89034 3.87376 0 0.420838 -0.00288151 1.69802
464 1 6.5609 9.81438 4.83505 0 -0.286135 -1.29354 1.14249
828 1 6.19256 9.92806 3.06757 0 0.534648 0.894588 1.40509
785 1 9.29209 7.76791 3.63603 0 -1.10234 -0.149531 -1.35014
738 1 9.71939 6.81917 3.2684 0 0.0447534 0.654758 -1.62163
721 1 6.02875 6.52803 4.52295 0 -1.28742 -0.336532 1.13564
72 1 9.53243 5.56702 0.702137 0 -0.924877 -1.15718 -0.930559
6 1 9.06887 7.20532 4.5158 0 0.450141 1.42453 -0.91022
682 1 5.79665 9.96062 1.90041 0 -1.73877 -0.152865 -0.11706
68 1 7.07591 10.2878 0.997985 0 -1.73769 0.0137574 0.201565
481 1 7.04921 7.96132 0.680677 0 -1.48543 -0.901305 0.203817
317 1 7.63948 8.61948 2.47771 0 -1.72081 -0.232508 -0.212482
110 1 9.662 9.35186 2.89187 0 -1.34202 0.269425 1.0894
90 1 9.41812 9.04799 0.813126 0 -1.63231 0.316068 -0.544115
377 1 9.22856 9.89819 3.98314 0 -1.72245 0.00940439 0.305719
568 1 9.39922 8.4733 2.06954 0 -1.50096 0.206676 0.874523
122 1 7.99992 6.2949 3.05092 0 -0.758317 -0.847777 -1.32915
971 1 6.31968 9.6326 1.12496 0 -1.25296 -0.280099 1.1883
93 1 7.38557 6.97343 1.15442 0 -1.40186 0.677982 -0.797201
508 1 9.33073 7.54952 2.5527 0 -0.0974095 0.608012 -1.63745
98 1 9.08301 7.7542 1.39576 0 1.05688 1.38901 -0.118535
622 1 8.05034 6.83318 1.86596 0 -0.56521 0.612962 -1.53793
856 1 8.79851 8.83814 3.26613 0 -1.66457 0.229023 -0.486971
644 1 7.83167 6.16425 4.2058 0 -0.0771155 -0.769312 -1.56927
249 1 8.48945 5.62549 1.87967 0 -1.46113 0.719316 0.638824
49 1 7.91719 6.12721 1.19635 0 -0.258547 1.51766 0.830818
84 1 9.97312 6.49348 4.24337 0 -0.0168129 0.482616 -1.68143
723 1 6.65723 8.60315 3.13491 0 -1.19591 -0.81419 -0.983509
7 1 8.75485 6.97016 3.2657 0 -0.58583 0.230877 -1.63215
331 1 7.04069 7.88911 2.53094 0 -0.585862 -1.53322 0.605321
830 1 5.87171 7.84464 3.11736 0 1.44298 -0.634179 0.758966
539 1 6.31666 7.03346 2.5238 0 -1.09126 -1.34392 -0.251846
500 1 8.52048 9.67645 0.938741 0 0.792836 1.5594 -0.00873814
790 1 7.70557 8.93943 1.47521 0 -1.72501 0.00971644 -0.290952
17 1 6.11042 8.15281 1.01073 0 -1.32679 1.0757 0.378006
210 1 7.09983 6.47635 2.07141 0 -0.428573 1.67903 -0.239977
921 1 7.85961 6.27642 0.118098 0 -0.378737 -0.94582 1.42211
541 1 6.93184 7.02944 0.115017 0 -0.101751 -0.00865565 -1.74642
579 1 6.09455 6.26444 1.87317 0 -1.1359 -0.806538 -1.05813
477 1 9.09285 6.12731 3.72658 0 -0.466866 1.47637 -0.814098
978 1 8.50111 7.07058 0.914056 0 0.626225 1.60168 0.320741
730 1 8.54334 8.15689 2.48414 0 -1.45442 -0.79698 -0.556683
86 1 8.26094 9.04799 0.0946427 0 1.00813 1.32942 0.526023
22 1 6.49329 7.24122 1.37387 0 -1.3037 0.927776 -0.70711
176 1 6.79294 8.72255 1.61632 0 -1.46175 -0.450116 0.849163
586 1 8.03247 8.03722 0.495543 0 -1.33377 0.817012 -0.783547
51 1 5.99627 8.85311 2.31843 0 -1.00538 -1.36427 -0.43402
446 1 8.04418 7.75481 1.55998 0 1.14799 0.343747 -1.2745
983 1 8.91135 6.28432 2.49605 0 1.49558 -0.546919 -0.724246
953 1 7.75034 7.37803 4.12328 0 0.535769 -0.772258 1.47546
138 1 7.13749 6.84387 3.06198 0 -1.21634 -0.345427 1.20896
15 1 6.27952 7.80331 4.3148 0 0.295943 -0.478332 -1.65651
600 1 5.94322 10.2454 3.90418 0 -0.54532 -0.607057 1.54742
590 1 6.02204 6.83123 3.44845 0 -0.502386 -1.21829 1.15055
81 1 7.91057 7.36208 2.75988 0 -1.05877 -1.22455 -0.663223
695 1 6.71725 5.51243 4.07505 0 -0.67622 0.433702 -1.55404
751 1 9.44591 9.79813 4.97535 0 -0.923067 1.46364 0.257102