LAMMPS (3 Aug 2022)
OMP_NUM_THREADS environment is not set. Defaulting to 1 thread. (../comm.cpp:98)
  using 1 OpenMP thread(s) per MPI task
package gpu 0
package gpu 1
#=======================================
# Sodium-Chloride in Stockmayer Fluid (water dipole)
#   Created by Chris Balzer (balzer@caltech.edu)
#   See README.md for description
#==================================

#======
# Parameters
#======
# Initialize the system set up
units		      lj
boundary	    p p p
atom_style	  hybrid dipole sphere
WARNING: Atom style hybrid defines both, per-type and per-atom masses; both must be set, but only per-atom masses will be used (../atom_vec_hybrid.cpp:133)
atom_modify   map yes

# Read in input data
read_data	    system.data
Reading data file ...
  orthogonal box = (0 0 0) to (10.3464 10.3464 10.3464)
  1 by 1 by 1 MPI processor grid
  reading atoms ...
  1002 atoms
  read_data CPU = 0.001 seconds

# Group atoms
group         solvent  type 1
1000 atoms in group solvent
group         ions     type 2 3
2 atoms in group ions
group         anion    type 2
1 atoms in group anion
group         cation   type 3
1 atoms in group cation
group2ndx     groups.ndx cation anion
Writing groups to index file groups.ndx:
 writing group cation...done
 writing group anion...done

# Set mass and diameter of spheres
set type      1 mass 1.0 # solvent
Setting atom values ...
  1000 settings made for mass
set type      2 mass 3.9411 # anion
Setting atom values ...
  1 settings made for mass
set type      3 mass 1.2767 # cation
Setting atom values ...
  1 settings made for mass
set type      1 diameter 1.0 # solvent
Setting atom values ...
  1000 settings made for diameter
set type      2 diameter 1.2067 # anion
Setting atom values ...
  1 settings made for diameter
set type      3 diameter 0.6533 # cation
Setting atom values ...
  1 settings made for diameter

# Set charge of ions
set type      2 charge -13.626 # anion
Setting atom values ...
  1 settings made for charge
set type      3 charge  13.626 # cation
Setting atom values ...
  1 settings made for charge

# Non-bonded interactions
pair_style	  lj/cut/dipole/long 1.12246204831 5.06974
pair_coeff	  1 1 1.0 1.0 1.122462 # solvent
pair_coeff	  2 2 1.0 1.2067 1.354438 # anion
pair_coeff	  3 3 1.0 0.6533 0.733342 # cation
kspace_style  ewald/disp 1e-4
pair_modify   shift yes mix geometric

# Set dipole
set group solvent dipole/random 4321 1.7494
Setting atom values ...
  1000 settings made for dipole/random

# Neighbor settings
neighbor	    0.4 bin
neigh_modify every 1 delay 0 one 10000

# Temperature computation
compute tempSph all  temp/sphere

#####################################################
# Minimization
minimize 0.0 1.0e-8 100000 100000

CITE-CITE-CITE-CITE-CITE-CITE-CITE-CITE-CITE-CITE-CITE-CITE-CITE

Your simulation uses code contributions which should be cited:

- GPU package (short-range, long-range and three-body potentials):

@Article{Brown11,
 author = {W. M. Brown, P. Wang, S. J. Plimpton, A. N. Tharrington},
 title = {Implementing Molecular Dynamics on Hybrid High Performance Computers - Short Range Forces},
 journal = {Comp.~Phys.~Comm.},
 year =    2011,
 volume =  182,
 pages =   {898--911}
}

@Article{Brown12,
 author = {W. M. Brown, A. Kohlmeyer, S. J. Plimpton, A. N. Tharrington},
 title = {Implementing Molecular Dynamics on Hybrid High Performance Computers - Particle-Particle Particle-Mesh},
 journal = {Comp.~Phys.~Comm.},
 year =    2012,
 volume =  183,
 pages =   {449--459}
}

@Article{Brown13,
 author = {W. M. Brown, Y. Masako},
 title = {Implementing Molecular Dynamics on Hybrid High Performance Computers – Three-Body Potentials},
 journal = {Comp.~Phys.~Comm.},
 year =    2013,
 volume =  184,
 pages =   {2785--2793}
}

@Article{Trung15,
 author = {T. D. Nguyen, S. J. Plimpton},
 title = {Accelerating dissipative particle dynamics simulations for soft matter systems},
 journal = {Comput.~Mater.~Sci.},
 year =    2015,
 volume =  100,
 pages =   {173--180}
}

@Article{Trung17,
 author = {T. D. Nguyen},
 title = {GPU-accelerated Tersoff potentials for massively parallel Molecular Dynamics simulations},
 journal = {Comp.~Phys.~Comm.},
 year =    2017,
 volume =  212,
 pages =   {113--122}
}

@Article{Nikolskiy19,
 author = {V. Nikolskiy, V. Stegailov},
 title = {GPU acceleration of four-site water models in LAMMPS},
 journal = {Proceeding of the International Conference on Parallel Computing (ParCo 2019), Prague, Czech Republic},
 year =    2019
}

CITE-CITE-CITE-CITE-CITE-CITE-CITE-CITE-CITE-CITE-CITE-CITE-CITE

EwaldDisp initialization ...
Generated 3 of 3 mixed pair_coeff terms from geometric mixing rule
  G vector = 0.55961375,   accuracy = 0.0001
Generated 3 of 3 mixed pair_coeff terms from geometric mixing rule
Neighbor list info ...
  update every 1 steps, delay 0 steps, check yes
  max neighbors/atom: 10000, page size: 100000
  master list distance cutoff = 5.46974
  ghost atom cutoff = 5.46974
  binsize = 2.73487, bins = 4 4 4
  0 neighbor lists, perpetual/occasional/extra = 0 0 0
  vectors: nbox = 7, nkvec = 709
Per MPI rank memory allocation (min/avg/max) = 18.02 | 18.02 | 18.02 Mbytes
   Step          Temp          E_pair         E_mol          TotEng         Press     
         0   0              1.2172349      0              1.2172349      11.128454    
      1042   0             -5.2979542      0             -5.2979542      2.6383933    
Loop time of 25.6336 on 1 procs for 1042 steps with 1002 atoms

100.0% CPU use with 1 MPI tasks x 1 OpenMP threads

Minimization stats:
  Stopping criterion = linesearch alpha is zero
  Energy initial, next-to-last, final = 
      1.21723490571729  -5.29795423940057  -5.29795423940057
  Force two-norm initial, final = 1097.5728 26.006834
  Force max component initial, final = 103.93378 13.323729
  Final line search alpha, max atom move = 0.0003174805 0.004230024
  Iterations, force evaluations = 1042 2237

MPI task timing breakdown:
Section |  min time  |  avg time  |  max time  |%varavg| %total
---------------------------------------------------------------
Pair    | 0.10731    | 0.10731    | 0.10731    |   0.0 |  0.42
Kspace  | 25.251     | 25.251     | 25.251     |   0.0 | 98.51
Neigh   | 0.00019555 | 0.00019555 | 0.00019555 |   0.0 |  0.00
Comm    | 0.23343    | 0.23343    | 0.23343    |   0.0 |  0.91
Output  | 0          | 0          | 0          |   0.0 |  0.00
Modify  | 7.467e-05  | 7.467e-05  | 7.467e-05  |   0.0 |  0.00
Other   |            | 0.04189    |            |       |  0.16

Nlocal:           1002 ave        1002 max        1002 min
Histogram: 1 0 0 0 0 0 0 0 0 0
Nghost:           7698 ave        7698 max        7698 min
Histogram: 1 0 0 0 0 0 0 0 0 0
Neighs:              0 ave           0 max           0 min
Histogram: 1 0 0 0 0 0 0 0 0 0

Total # of neighbors = 0
Ave neighs/atom = 0
Neighbor list builds = 140
Dangerous builds = 0
reset_timestep 0

#####################################################
# Initialization (NVT Sphere with spring)

velocity       all create 1.0 4928459
fix		         1 all nve/sphere update dipole
fix            2 all langevin 1.0 1.0 1.0 214323 omega yes
fix            3 ions recenter 0.5 0.5 0.5 units fraction shift all
fix            4 cation spring couple anion 50.0 0.0 0.0 0.0 1.25

thermo		     1000
thermo_style	 custom step temp c_tempSph press etotal pe ke epair ecoul elong evdwl enthalpy
thermo_modify  norm no
dump	       	 1 all custom 10000 dump.dipoleInit id type x y z q mux muy muz

timestep	     0.005
run		         100000
EwaldDisp initialization ...
Generated 3 of 3 mixed pair_coeff terms from geometric mixing rule
  G vector = 0.55961375,   accuracy = 0.0001
Generated 3 of 3 mixed pair_coeff terms from geometric mixing rule
Per MPI rank memory allocation (min/avg/max) = 18.21 | 18.21 | 18.21 Mbytes
   Step          Temp        c_tempSph        Press          TotEng         PotEng         KinEng         E_pair         E_coul         E_long         E_vdwl        Enthalpy   
         0   1              0.49975037     3.5421807     -3807.0501     -5308.5501      1501.5        -5308.5501     -5841.8128     -273.69499      806.95766      116.13234    
      1000   1.014434       1.0015722      7.5561341     -2684.1371     -4207.3097      1523.1726     -4207.3097     -5514.3951     -303.37868      1610.4641      5684.745     
      2000   1.0334781      1.0163401      7.7458259     -2588.2392     -4140.0066      1551.7674     -4140.0066     -5478.711      -303.42687      1642.1313      5990.7382    
      3000   0.99654009     1.0116966      7.3863972     -2678.8637     -4175.1687      1496.3049     -4175.1687     -5444.4315     -301.82224      1571.085       5502.0244    
      4000   0.97624293     0.97783487     7.6665269     -2623.8908     -4089.7196      1465.8288     -4089.7196     -5410.3443     -298.76632      1619.391       5867.258     
      5000   1.020682       1.009244       7.4249322     -2656.3529     -4188.907       1532.5541     -4188.907      -5469.8259     -297.3353       1578.2542      5567.215     
      6000   1.0283908      1.0163586      7.1920808     -2736.2623     -4280.3911      1544.1288     -4280.3911     -5523.8192     -303.22868      1546.6568      5229.4085    
      7000   0.97701993     0.97762068     7.6285078     -2673.4877     -4140.4831      1466.9954     -4140.4831     -5460.994      -300.75682      1621.2677      5775.5528    
      8000   1.0317715      1.0027106      7.0751828     -2763.5604     -4312.7653      1549.2049     -4312.7653     -5526.5209     -297.41602      1511.1716      5072.6387    
      9000   1.0330934      1.0326637      7.6165537     -2638.076      -4189.2658      1551.1897     -4189.2658     -5508.7654     -295.57515      1615.0748      5797.7244    
     10000   1.0049265      1.0071763      7.2897489     -2686.8909     -4195.788       1508.8972     -4195.788      -5434.2052     -298.32509      1536.7423      5386.9533    
     11000   1.0484781      1.0299937      7.3800667     -2614.51       -4188.7999      1574.2898     -4188.7999     -5447.8474     -299.61136      1558.6589      5559.3666    
     12000   1.0123256      0.98394173     7.6105035     -2657.0005     -4177.0074      1520.0069     -4177.0074     -5490.7218     -299.03732      1612.7516      5772.0991    
     13000   1.0293686      1.0132989      7.3934757     -2663.2891     -4208.886       1545.5969     -4208.886      -5488.6073     -300.67691      1580.3981      5525.4389    
     14000   1.0251058      0.99848039     7.0709473     -2675.8683     -4215.0646      1539.1964     -4215.0646     -5428.1938     -296.38667      1509.5158      5155.6397    
     15000   0.99048776     0.9846592      7.2399205     -2722.2406     -4209.458       1487.2174     -4209.458      -5448.71       -299.22198      1538.474       5296.4156    
     16000   1.041065       1.0173824      7.8395479     -2652.4053     -4215.5644      1563.1591     -4215.5644     -5568.8272     -299.88008      1653.1428      6030.375     
     17000   1.0384796      1.0165441      7.5492493     -2602.6621     -4161.9391      1559.2771     -4161.9391     -5461.2997     -299.56152      1598.9222      5758.5947    
     18000   0.97822528     0.98457764     7.5813864     -2698.826      -4167.6313      1468.8053     -4167.6313     -5485.6451     -303.1722       1621.1861      5698.0246    
     19000   1.0259644      1.0233034      7.3991499     -2685.6439     -4226.1293      1540.4855     -4226.1293     -5503.4347     -301.97137      1579.2767      5509.3686    
     20000   1.0160286      1.0234785      7.4673113     -2648.093      -4173.6599      1525.567      -4173.6599     -5459.4894     -300.75427      1586.5837      5622.4124    
     21000   0.98594281     0.99797189     7.5638819     -2650.7085     -4131.1016      1480.3931     -4131.1016     -5435.4691     -297.38193      1601.7494      5726.7548    
     22000   0.98036406     0.97417113     7.370588      -2691.482      -4163.4986      1472.0166     -4163.4986     -5442.7014     -299.08569      1578.2884      5471.8964    
     23000   1.0060175      1.001398       7.4539072     -2705.9919     -4216.5273      1510.5353     -4216.5273     -5512.0013     -298.21323      1593.6873      5549.6676    
     24000   0.98607072     1.0013018      7.4153326     -2675.047      -4155.6322      1480.5852     -4155.6322     -5433.5029     -302.97439      1580.8451      5537.8888    
     25000   0.98368207     1.0107283      7.4378752     -2692.1442     -4169.1428      1476.9986     -4169.1428     -5455.9148     -298.04355      1584.8156      5545.7589    
     26000   0.99352478     0.99565141     7.8757406     -2592.1724     -4083.9499      1491.7775     -4083.9499     -5438.5614     -303.07305      1657.6846      6130.6936    
     27000   0.9628963      0.9765407      7.2065755     -2800.0554     -4245.8442      1445.7888     -4245.8442     -5500.935      -303.265        1558.3558      5181.6691    
     28000   0.98387592     0.97664247     7.6908871     -2673.6514     -4150.9411      1477.2897     -4150.9411     -5494.5509     -301.4084       1645.0182      5844.478     
     29000   1.0327002      1.0275544      7.4262255     -2733.5293     -4284.1286      1550.5993     -4284.1286     -5575.3157     -302.5638       1593.7509      5491.4711    
     30000   0.9814474      0.97743        7.5431667     -2709.2229     -4182.8661      1473.6433     -4182.8661     -5492.7599     -297.57083      1607.4646      5645.2971    
     31000   1.0055759      0.99505176     7.3873283     -2691.9023     -4201.7745      1509.8723     -4201.7745     -5487.687      -298.71268      1584.6252      5490.017     
     32000   1.0099251      1.0118051      7.4763309     -2655.632      -4172.0345      1516.4025     -4172.0345     -5454.6632     -303.5846       1586.2133      5624.8631    
     33000   1.0126851      1.0021138      7.3900823     -2683.5955     -4204.1422      1520.5467     -4204.1422     -5472.7869     -301.9702       1570.6149      5501.3741    
     34000   0.98939563     0.99412941     7.2605199     -2714.2215     -4199.799       1485.5775     -4199.799      -5437.1584     -302.84006      1540.1995      5327.2498    
     35000   1.0064628      0.99217867     7.490922      -2726.4884     -4237.6923      1511.2039     -4237.6923     -5531.894      -301.83687      1596.0386      5570.1673    
     36000   1.0178303      1.0170755      7.3491204     -2702.2468     -4230.519       1528.2721     -4230.519      -5509.0361     -303.42119      1581.9383      5437.3549    
     37000   1.0367441      1.0238376      7.2786284     -2668.4959     -4225.1672      1556.6712     -4225.1672     -5473.4635     -301.98075      1550.2771      5393.0316    
     38000   1.0349083      1.0194563      7.5919436     -2624.4586     -4178.3735      1553.9148     -4178.3735     -5489.1316     -295.5378       1606.296       5784.0847    
     39000   0.98468477     1.0032141      7.4076542     -2720.9114     -4199.4156      1478.5042     -4199.4156     -5489.3709     -296.8186       1586.7739      5483.52      
     40000   0.9960722      0.98238733     7.5718417     -2641.7454     -4137.3478      1495.6024     -4137.3478     -5450.6294     -292.30502      1605.5866      5744.5339    
     41000   0.98206718     0.99855217     7.5430223     -2643.5364     -4118.1103      1474.5739     -4118.1103     -5409.1596     -295.9558       1587.0051      5710.8236    
     42000   0.96136832     0.98383509     7.2871392     -2795.1203     -4238.6148      1443.4945     -4238.6148     -5507.873      -302.38309      1571.6413      5275.8335    
     43000   1.048724       1.0068788      7.3375028     -2617.2391     -4191.8982      1574.6591     -4191.8982     -5447.0362     -303.68151      1558.8195      5509.4954    
     44000   0.96973886     0.98193697     7.8494081     -2620.4984     -4076.5613      1456.0629     -4076.5613     -5432.5705     -301.67873      1657.6879      6073.2026    
     45000   1.0092757      1.0090324      7.3678869     -2638.5529     -4153.9804      1515.4275     -4153.9804     -5420.4736     -302.08445      1568.5776      5521.8338    
     46000   1.0017204      0.98540531     7.2648395     -2697.3194     -4201.4026      1504.0831     -4201.4026     -5447.092      -304.11003      1549.7994      5348.9361    
     47000   1.0164457      0.99587412     7.2968248     -2633.5156     -4159.7088      1526.1932     -4159.7088     -5409.8147     -298.68657      1548.7925      5448.1655    
     48000   0.99365116     1.0021404      7.5957884     -2697.4948     -4189.462       1491.9672     -4189.462      -5503.0993     -304.15569      1617.793       5715.3069    
     49000   1.0091145      1.0039842      7.3829134     -2715.5539     -4230.7392      1515.1854     -4230.7392     -5508.8278     -300.34787      1578.4364      5461.4758    
     50000   0.9999852      0.99363187     7.2696651     -2759.6826     -4261.1603      1501.4778     -4261.1603     -5518.9247     -299.64629      1557.4107      5291.9176    
     51000   1.00595        0.99416027     7.5132342     -2665.0411     -4175.4751      1510.4339     -4175.4751     -5464.9767     -296.8024       1586.3041      5656.3267    
     52000   1.033635       1.0387156      7.4217808     -2607.3264     -4159.3293      1552.0029     -4159.3293     -5433.8871     -301.23326      1575.791       5612.7512    
     53000   1.0266901      1.0189284      7.4024558     -2626.8777     -4168.4528      1541.5751     -4168.4528     -5442.9794     -303.41361      1577.9402      5571.7963    
     54000   1.0486803      1.0182602      7.4761661     -2625.5273     -4200.1207      1574.5934     -4200.1207     -5484.9207     -301.88239      1586.6824      5654.7854    
     55000   0.97767708     1.0008361      7.272078      -2765.8243     -4233.8064      1467.9821     -4233.8064     -5482.0906     -300.3115       1548.5957      5288.4483    
     56000   0.96838895     0.9933983      7.3750737     -2798.0986     -4252.1346      1454.036      -4252.1346     -5536.4537     -301.53992      1585.859       5370.248     
     57000   0.95157968     0.99551398     7.5560332     -2771.1063     -4199.9031      1428.7969     -4199.9031     -5536.0637     -300.8514       1637.012       5597.6642    
     58000   1.0466436      1.0149233      7.5369233     -2578.9398     -4150.4752      1571.5353     -4150.4752     -5429.3624     -304.91437      1583.8016      5768.6652    
     59000   1.01761        1.0219694      7.5915038     -2678.7916     -4206.733       1527.9415     -4206.733      -5519.1051     -301.3716       1613.7436      5729.2646    
     60000   0.99277811     1.0274428      7.6683346     -2648.1975     -4138.8539      1490.6563     -4138.8539     -5468.3973     -295.589        1625.1324      5844.9535    
     61000   1.0329304      1.0125938      7.4418643     -2645.3429     -4196.2879      1550.945      -4196.2879     -5468.5881     -300.65468      1572.9549      5596.9785    
     62000   1.0026331      1.0083436      7.5932809     -2659.9229     -4165.3764      1505.4535     -4165.3764     -5487.2913     -300.29632      1622.2112      5750.1016    
     63000   1.0063771      0.99349007     7.4976649     -2734.9442     -4246.0194      1511.0752     -4246.0194     -5535.9746     -303.38202      1593.3372      5569.1797    
     64000   1.0101712      1.000791       7.4109256     -2674.9192     -4191.6913      1516.7721     -4191.6913     -5469.55       -299.64116      1577.4999      5533.1357    
     65000   0.96714141     0.9694367      7.176612      -2770.279      -4222.4418      1452.1628     -4222.4418     -5452.3012     -302.30629      1532.1656      5178.2591    
     66000   1.0133283      1.0068813      7.5304278     -2577.2175     -4098.73        1521.5125     -4098.73       -5385.9878     -296.06062      1583.3184      5763.1933    
     67000   0.99512412     0.99355891     7.3425676     -2690.6472     -4184.8261      1494.1789     -4184.8261     -5454.2582     -297.11129      1566.5435      5441.6969    
     68000   0.97667651     1.00254        7.4286944     -2718.3112     -4184.791       1466.4798     -4184.791      -5463.0356     -301.87814      1580.1227      5509.4237    
     69000   1.0011475      1.0196729      7.1300268     -2797.8934     -4301.1164      1503.223      -4301.1164     -5530.8891     -298.83681      1528.6095      5099.0488    
     70000   1.0430528      1.0159384      7.4994328     -2596.6162     -4162.76        1566.1438     -4162.76       -5438.3085     -299.8          1575.3486      5709.4657    
     71000   0.98255778     0.97766576     7.5103775     -2728.1659     -4203.4764      1475.3105     -4203.4764     -5499.2465     -302.52274      1598.2928      5590.038     
     72000   1.0045803      0.99043279     7.5483099     -2694.8142     -4203.1916      1508.3774     -4203.1916     -5507.3254     -299.95248      1604.0863      5665.4021    
     73000   1.0407151      1.0331119      7.4879674     -2602.7144     -4165.3481      1562.6338     -4165.3481     -5453.6472     -298.07458      1586.3737      5690.6689    
     74000   0.97881702     0.98539346     7.4542786     -2694.8937     -4164.5874      1469.6938     -4164.5874     -5447.2785     -297.83093      1580.522       5561.1772    
     75000   0.98332776     1.0072159      7.4517675     -2752.1        -4228.5666      1476.4666     -4228.5666     -5533.07       -300.45278      1604.9562      5501.1897    
     76000   0.99841682     1.0288205      7.351165      -2688.0123     -4187.1352      1499.1229     -4187.1352     -5445.3338     -303.42188      1561.6205      5453.8539    
     77000   1.006044       1.0009754      7.6191247     -2701.6898     -4212.2649      1510.5751     -4212.2649     -5526.8533     -302.52499      1617.1134      5736.9583    
     78000   0.99406472     1.0038763      7.5283204     -2683.4412     -4176.0293      1492.5882     -4176.0293     -5478.9408     -300.65058      1603.562       5654.6356    
     79000   0.98244784     1.0158898      7.1703229     -2761.6679     -4236.8133      1475.1454     -4236.8133     -5473.7436     -296.7749       1533.7052      5179.9046    
     80000   1.0058212      1.0236005      7.5591174     -2693.0327     -4203.2733      1510.2406     -4203.2733     -5500.6285     -301.14701      1598.5022      5679.1536    
     81000   1.0101018      0.99854715     7.2236252     -2757.2802     -4273.948       1516.6678     -4273.948      -5529.3657     -300.4922       1555.91        5243.3279    
     82000   0.97622309     0.97517629     7.2782064     -2751.7115     -4217.5104      1465.799      -4217.5104     -5482.0422     -295.29117      1559.823       5309.3486    
     83000   1.0199383      1.0173512      7.3816755     -2708.7772     -4240.2146      1531.4373     -4240.2146     -5513.3824     -302.17679      1575.3446      5466.8812    
     84000   0.97621737     0.98837376     7.1147117     -2837.7484     -4303.5387      1465.7904     -4303.5387     -5534.4094     -303.38921      1534.2599      5042.2313    
     85000   1.0050652      1.0055873      7.4033665     -2727.3        -4236.4054      1509.1055     -4236.4054     -5515.7109     -299.50869      1578.8141      5472.3827    
     86000   1.026796       1.0167024      7.0800093     -2674.6392     -4216.3734      1541.7342     -4216.3734     -5421.5432     -303.64476      1508.8146      5166.9055    
     87000   0.9800098      1.0052649      7.3175704     -2789.2161     -4260.7008      1471.4847     -4260.7008     -5528.0118     -303.48963      1570.8007      5315.4421    
     88000   1.010393       0.99109879     7.0587441     -2795.9702     -4313.0753      1517.1051     -4313.0753     -5535.223      -300.31002      1522.4577      5022.022     
     89000   1.0098281      1.0115622      7.4789617     -2745.0826     -4261.3395      1516.2569     -4261.3395     -5559.9898     -300.96557      1599.6159      5538.3264    
     90000   0.9584878      0.98341075     7.5225982     -2688.7645     -4127.9339      1439.1694     -4127.9339     -5432.5681     -301.75821      1606.3924      5642.9746    
     91000   0.98235775     0.97919002     7.4665964     -2669.6759     -4144.6861      1475.0102     -4144.6861     -5420.2454     -302.77908      1578.3384      5600.0378    
     92000   0.99229269     0.99212289     7.1789577     -2753.0905     -4243.018       1489.9275     -4243.018      -5478.2541     -301.0231       1536.2593      5198.0456    
     93000   1.009654       1.0016369      7.6529949     -2672.7634     -4188.7588      1515.9954     -4188.7588     -5510.8681     -301.28178      1623.3911      5803.3981    
     94000   1.0367861      1.0171158      7.7040152     -2603.0651     -4159.7994      1556.7343     -4159.7994     -5484.9337     -298.97232      1624.1066      5929.6044    
     95000   0.99259155     0.98221039     7.1733529     -2784.6479     -4275.0241      1490.3762     -4275.0241     -5534.1018     -301.9359       1561.0136      5160.2806    
     96000   1.038571       1.0184275      7.6963059     -2588.641      -4148.0553      1559.4143     -4148.0553     -5458.1454     -301.41143      1611.5016      5935.49      
     97000   0.98958126     0.98382843     7.6044515     -2707.7282     -4193.5844      1485.8563     -4193.5844     -5511.2139     -303.65156      1621.2811      5714.6684    
     98000   1.0022689      0.97692467     7.3435672     -2695.6156     -4200.5225      1504.9068     -4200.5225     -5469.1555     -298.18067      1566.8137      5437.8356    
     99000   1.0285238      1.0192586      7.4904652     -2667.1728     -4211.5012      1544.3284     -4211.5012     -5502.0305     -300.28987      1590.8191      5628.977     
    100000   1.0047621      1.0054866      7.4674923     -2710.2669     -4218.9172      1508.6503     -4218.9172     -5495.4539     -301.29212      1577.8288      5560.439     
Loop time of 1155.5 on 1 procs for 100000 steps with 1002 atoms

Performance: 37386.289 tau/day, 86.542 timesteps/s
100.0% CPU use with 1 MPI tasks x 1 OpenMP threads

MPI task timing breakdown:
Section |  min time  |  avg time  |  max time  |%varavg| %total
---------------------------------------------------------------
Pair    | 5.2928     | 5.2928     | 5.2928     |   0.0 |  0.46
Kspace  | 1130.1     | 1130.1     | 1130.1     |   0.0 | 97.80
Neigh   | 0.014364   | 0.014364   | 0.014364   |   0.0 |  0.00
Comm    | 11.183     | 11.183     | 11.183     |   0.0 |  0.97
Output  | 0.01418    | 0.01418    | 0.01418    |   0.0 |  0.00
Modify  | 7.9339     | 7.9339     | 7.9339     |   0.0 |  0.69
Other   |            | 0.9559     |            |       |  0.08

Nlocal:           1002 ave        1002 max        1002 min
Histogram: 1 0 0 0 0 0 0 0 0 0
Nghost:           7649 ave        7649 max        7649 min
Histogram: 1 0 0 0 0 0 0 0 0 0
Neighs:              0 ave           0 max           0 min
Histogram: 1 0 0 0 0 0 0 0 0 0

Total # of neighbors = 0
Ave neighs/atom = 0
Neighbor list builds = 10151
Dangerous builds = 1

undump         1
unfix          1
unfix          2
unfix          3
unfix          4

#####################################################
# Equilibration (NVT Sphere with colvars)

fix		         1 all nve/sphere update dipole
fix            2 all langevin 1.0 1.0 1.0 214323 omega yes
fix            3 ions colvars input.colvars output equil

thermo		     1000
thermo_style	 custom step temp c_tempSph press etotal pe ke epair ecoul elong evdwl enthalpy
WARNING: New thermo_style command, previous thermo_modify settings will be lost (../output.cpp:903)
thermo_modify  norm no
dump	       	 1 all custom 10000 dump.dipoleEquil id type x y z q mux muy muz

timestep	     0.005
run		         500000
EwaldDisp initialization ...
Generated 3 of 3 mixed pair_coeff terms from geometric mixing rule
  G vector = 0.55961375,   accuracy = 0.0001
Generated 3 of 3 mixed pair_coeff terms from geometric mixing rule
colvars: Creating proxy instance
colvars: ----------------------------------------------------------------------
colvars: Initializing the collective variables module, version 2022-05-24.
colvars: Please cite Fiorin et al, Mol Phys 2013:
colvars:   https://doi.org/10.1080/00268976.2013.813594
colvars: as well as all other papers listed below for individual features used.
colvars: This version was built with the C++11 standard or higher.
colvars: Using LAMMPS interface, version "2022-05-09".
colvars: ----------------------------------------------------------------------
colvars: Reading new configuration from file "input.colvars":
colvars: # units = "" [default]
colvars: # indexFile = "groups.ndx"
colvars: The following index groups are currently defined:
colvars:   cation (1 atoms)
colvars:   anion (1 atoms)
colvars: # smp = on [default]
colvars: # colvarsTrajFrequency = 1000
colvars: # colvarsRestartFrequency = 0 [default]
colvars: # scriptedColvarForces = off [default]
colvars: # scriptingAfterBiases = off [default]
colvars: ----------------------------------------------------------------------
colvars:   Initializing a new collective variable.
colvars:   # name = "dist"
colvars:   Initializing a new "distance" component.
colvars:     # name = "" [default]
colvars:     # componentCoeff = 1 [default]
colvars:     # componentExp = 1 [default]
colvars:     # period = 0 [default]
colvars:     # wrapAround = 0 [default]
colvars:     # forceNoPBC = off [default]
colvars:     # scalable = on [default]
colvars:       Initializing atom group "group1".
colvars:       # name = "" [default]
colvars:       # centerToOrigin = off [default]
colvars:       # centerToReference = off [default]
colvars:       # rotateToReference = off [default]
colvars:       # atomsOfGroup = "" [default]
colvars:       # indexGroup = "cation"
colvars:       # psfSegID =  [default]
colvars:       # atomsFile = "" [default]
colvars:       # dummyAtom = ( 0 , 0 , 0 ) [default]
colvars:       # enableFitGradients = on [default]
colvars:       # printAtomIDs = off [default]
colvars:       Atom group "group1" defined with 1 atoms requested.
colvars:       Initializing atom group "group2".
colvars:       # name = "" [default]
colvars:       # centerToOrigin = off [default]
colvars:       # centerToReference = off [default]
colvars:       # rotateToReference = off [default]
colvars:       # atomsOfGroup = "" [default]
colvars:       # indexGroup = "anion"
colvars:       # psfSegID =  [default]
colvars:       # atomsFile = "" [default]
colvars:       # dummyAtom = ( 0 , 0 , 0 ) [default]
colvars:       # enableFitGradients = on [default]
colvars:       # printAtomIDs = off [default]
colvars:       Atom group "group2" defined with 1 atoms requested.
colvars:     # oneSiteSystemForce = off [default]
colvars:     # oneSiteTotalForce = off [default]
colvars:   All components initialized.
colvars:   # timeStepFactor = 1 [default]
colvars:   # width = 0.01
colvars:   # lowerBoundary = 0.75
colvars:   # upperBoundary = 2.5
colvars:   # hardLowerBoundary = off [default]
colvars:   # hardUpperBoundary = off [default]
colvars:   # expandBoundaries = off [default]
colvars:   # extendedLagrangian = off [default]
colvars:   # outputValue = on [default]
colvars:   # outputVelocity = off [default]
colvars:   # outputTotalForce = off [default]
colvars:   # outputAppliedForce = off [default]
colvars:   # subtractAppliedForce = off [default]
colvars:   # runAve = off [default]
colvars:   # corrFunc = off [default]
colvars: ----------------------------------------------------------------------
colvars: Collective variables initialized, 1 in total.
colvars: ----------------------------------------------------------------------
colvars:   Initializing a new "abf" instance.
colvars:   # name = "abf_dist"
colvars:   # colvars = { dist }
colvars:   # stepZeroData = off [default]
colvars:   # outputEnergy = on
colvars:   # outputFreq = 1000
colvars:   # timeStepFactor = 1 [default]
colvars:   WARNING: ABF should not be run without a thermostat or at 0 Kelvin!
colvars:   # applyBias = on [default]
colvars:   # updateBias = on [default]
colvars:   # hideJacobian = off [default]
colvars:   Jacobian (geometric) forces will be included in reported free energy gradients.
colvars:   # fullSamples = 1000
colvars:   # inputPrefix =  [default]
colvars:   # historyFreq = 1000000
colvars:   # shared = off [default]
colvars:   # maxForce =  [default]
colvars:   # integrate = on [default]
colvars:   Finished ABF setup.
colvars: ----------------------------------------------------------------------
colvars:   Initializing a new "harmonicwalls" instance.
colvars:   # name = "wall_dist"
colvars:   # colvars = { dist }
colvars:   # stepZeroData = off [default]
colvars:   # outputEnergy = off [default]
colvars:   # outputFreq = 0 [default]
colvars:   # timeStepFactor = 1 [default]
colvars:   # writeTISamples = off [default]
colvars:   # writeTIPMF = off [default]
colvars:   # forceConstant = 1 [default]
colvars:   # targetForceConstant = -1 [default]
colvars:   # lowerWalls = { 0.7 }
colvars:   # upperWalls = { 2.55 }
colvars:   # lowerWallConstant = 1
colvars:   # upperWallConstant = 1
colvars:   The lower wall force constant for colvar "dist" will be rescaled to 10000 according to the specified width (0.01).
colvars:   The upper wall force constant for colvar "dist" will be rescaled to 10000 according to the specified width (0.01).
colvars: ----------------------------------------------------------------------
colvars: Collective variables biases initialized, 2 in total.
colvars: ----------------------------------------------------------------------
colvars: Collective variables module (re)initialized.
colvars: ----------------------------------------------------------------------
colvars: The restart output state file will be "rest.colvars.state".
colvars: The final output state file will be "equil.colvars.state".
colvars: Opening trajectory file "equil.colvars.traj".
colvars: Setting initial step number from LAMMPS: 100000
colvars: Re-initialized atom group for variable "dist":0/0. 1 atoms: total mass = 1.2767, total charge = 13.626.
colvars: Re-initialized atom group for variable "dist":0/1. 1 atoms: total mass = 3.9411, total charge = -13.626.
colvars:   Prepared sample and gradient buffers at step 100000.
Per MPI rank memory allocation (min/avg/max) = 18.22 | 18.22 | 18.22 Mbytes
   Step          Temp        c_tempSph        Press          TotEng         PotEng         KinEng         E_pair         E_coul         E_long         E_vdwl        Enthalpy   
    100000   1.0047621      1.0054866      7.4674924     -2710.2669     -4218.9172      1508.6503     -4218.9172     -5495.4539     -301.29212      1577.8288      5560.4391    
    101000   1.0081         0.99532685     7.4586976     -2643.6855     -4157.3476      1513.6621     -4157.3476     -5449.4559     -297.01873      1589.1271      5617.2797    
    102000   1.0038033      1.0088841      7.3047289     -2705.6737     -4212.8844      1507.2107     -4212.8844     -5469.566      -304.32688      1561.0085      5384.7617    
    103000   1.0179074      1.0164716      7.2438948     -2721.6428     -4250.0308      1528.388      -4250.0308     -5490.4776     -301.49203      1541.9389      5301.4151    
    104000   0.97554523     0.98571644     7.821481      -2725.4102     -4190.1914      1464.7812     -4190.1914     -5554.8329     -299.25721      1663.8987      5937.36      
    105000   0.99785712     0.98463339     7.4366803     -2720.6526     -4218.9351      1498.2825     -4218.9351     -5508.6657     -300.78519      1590.5158      5515.9271    
    106000   0.98548217     0.98811653     7.4082895     -2715.4553     -4195.1568      1479.7015     -4195.1568     -5483.6874     -299.84953      1588.3801      5489.6799    
    107000   0.99822785     0.99860176     7.4188202     -2739.1275     -4237.9666      1498.8391     -4237.9666     -5523.3279     -296.87402      1582.2352      5477.671     
    108000   1.0295304      1.0052679      7.5570189     -2667.0831     -4212.923       1545.8399     -4212.923      -5518.7239     -300.82004      1606.6209      5702.779     
    109000   0.98944006     0.98701982     7.3579467     -2629.9751     -4115.6194      1485.6443     -4115.6194     -5348.5541     -302.36552      1535.3002      5519.4023    
    110000   1.0091397      1.0098599      7.2435107     -2681.4702     -4196.6934      1515.2232     -4196.6934     -5433.7359     -301.35344      1538.396       5341.1623    
    111000   1.0108293      0.99798637     7.0591224     -2689.6005     -4207.3606      1517.7602     -4207.3606     -5405.682      -301.05838      1499.3797      5128.8106    
    112000   0.99892089     0.99374269     7.7967444     -2637.1039     -4136.9837      1499.8797     -4136.9837     -5494.0678     -298.2135       1655.2977      5998.2688    
    113000   0.97561385     1.011015       7.4384676     -2751.1505     -4216.0346      1464.8842     -4216.0346     -5514.8713     -303.66543      1602.5021      5487.4088    
    114000   0.99567088     0.99350357     7.2275492     -2710.3672     -4205.367       1494.9998     -4205.367      -5450.4795     -294.29226      1539.4048      5294.587     
    115000   1.0050629      1.0098959      7.3697235     -2627.7344     -4136.8364      1509.102      -4136.8364     -5393.5596     -301.33967      1558.0629      5534.6865    
    116000   0.99774116     0.99332747     7.3360498     -2785.1918     -4283.3002      1498.1084     -4283.3002     -5561.7396     -300.95081      1579.3902      5339.9335    
    117000   1.0020366      1.0259032      7.2920153     -2644.789      -4149.3469      1504.5579     -4149.3469     -5381.0167     -304.05339      1535.7232      5431.5654    
    118000   1.0195851      1.0154023      7.5621802     -2698.1224     -4229.0294      1530.907      -4229.0294     -5545.7258     -299.982        1616.6784      5677.4561    
    119000   1.020462       1.012322       7.1564032     -2669.914      -4202.1377      1532.2237     -4202.1377     -5406.9462     -301.85566      1506.6642      5256.2416    
    120000   1.0062786      1.0259568      7.1671771     -2739.2938     -4250.2211      1510.9273     -4250.2211     -5475.4411     -299.25146      1524.4715      5198.7946    
    121000   0.97353928     0.98299055     7.4004807     -2678.1089     -4139.8781      1461.7692     -4139.8781     -5396.6498     -299.1773       1555.949       5518.3776    
    122000   1.027886       1.0178513      7.2132353     -2676.3516     -4219.7223      1543.3708     -4219.7223     -5450.4294     -301.90826      1532.6153      5312.7491    
    123000   1.0345934      1.0219463      7.3702798     -2613.5593     -4167.0013      1553.4419     -4167.0013     -5419.5373     -300.73232      1553.2684      5549.4777    
    124000   1.0025775      1.0102949      7.2989576     -2691.7381     -4197.1082      1505.3702     -4197.1082     -5456.8302     -301.69594      1561.4179      5392.3054    
    125000   0.98935578     1.0054999      7.2795838     -2732.3508     -4217.8685      1485.5177     -4217.8685     -5486.8771     -301.31045      1570.319       5330.2349    
    126000   1.0359896      1.0252464      7.1948287     -2657.1992     -4212.7376      1555.5384     -4212.7376     -5425.9735     -297.65822      1510.8941      5311.5151    
    127000   1.0154627      1.005151       7.6325081     -2634.6607     -4159.3779      1524.7172     -4159.3779     -5477.3319     -294.78486      1612.7389      5818.8103    
    128000   1.0062669      1.0166151      7.5404373     -2709.9667     -4220.8765      1510.9098     -4220.8765     -5522.6975     -303.90199      1605.723       5641.5303    
    129000   1.0022705      0.98506278     7.3911255     -2711.2919     -4216.2011      1504.9092     -4216.2011     -5479.5769     -305.5676       1568.9434      5474.8331    
    130000   1.0231063      1.0382287      7.5211049     -2647.2506     -4183.4447      1536.1941     -4183.4447     -5472.7568     -300.62608      1589.9382      5682.8346    
    131000   0.99149381     1.0043286      7.2774897     -2730.3537     -4219.0817      1488.728      -4219.0817     -5480.0056     -295.82752      1556.7515      5329.9126    
    132000   0.99090947     1.0069512      7.5526042     -2632.7376     -4120.5881      1487.8506     -4120.5881     -5406.8398     -302.36058      1588.6123      5732.235     
    133000   1.0349733      1.0196067      7.7881377     -2669.1347     -4223.1472      1554.0124     -4223.1472     -5572.5107     -298.67546      1648.039       5956.7056    
    134000   0.97324647     0.98893036     7.1389121     -2755.2757     -4216.6053      1461.3296     -4216.6053     -5447.4424     -303.15394      1533.991       5151.5074    
    135000   0.98501915     0.99000566     7.1290393     -2693.8835     -4172.8898      1479.0063     -4172.8898     -5396.818      -299.56417      1523.4924      5201.9649    
    136000   1.051934       1.02099        7.2607323     -2681.2862     -4260.7651      1579.4788     -4260.7651     -5522.5979     -294.32036      1556.1532      5360.4203    
    137000   1.0031276      1.0320471      7.5422016     -2660.6458     -4166.8418      1506.196      -4166.8418     -5465.7442     -299.05511      1597.9575      5692.8052    
    138000   0.97604911     0.99076555     7.2566874     -2711.1535     -4176.6912      1465.5377     -4176.6912     -5431.9857     -302.12444      1557.4189      5326.073     
    139000   0.97948841     0.97958585     7.5772309     -2622.3582     -4093.0601      1470.7019     -4093.0601     -5398.9365     -300.29417      1606.1706      5769.8899    
    140000   1.0095349      1.0033723      7.3914022     -2729.5478     -4245.3645      1515.8167     -4245.3645     -5518.3589     -302.6428       1575.6373      5456.8837    
    141000   1.040541       1.0548873      7.7715922     -2586.2391     -4148.6114      1562.3723     -4148.6114     -5489.0771     -301.26486      1641.7306      6021.276     
    142000   1.0059251      0.98573229     7.4404257     -2739.2534     -4249.6499      1510.3965     -4249.6499     -5526.89       -301.89015      1579.1302      5501.4745    
    143000   1.0355455      1.0379796      7.4859469     -2628.2401     -4183.1116      1554.8715     -4183.1116     -5467.4924     -302.16422      1586.545       5662.9054    
    144000   0.99791763     1.0223103      7.5598738     -2717.4446     -4215.818       1498.3733     -4215.818      -5532.3551     -304.70868      1621.2459      5655.5794    
    145000   0.97952679     0.9942078      7.3210115     -2717.2338     -4187.9933      1470.7595     -4187.9933     -5454.3673     -304.36528      1570.7393      5391.2355    
    146000   0.98531774     0.9871562      7.556768      -2730.5903     -4210.0449      1479.4546     -4210.0449     -5517.9994     -299.6475       1607.6021      5638.9939    
    147000   0.96893341     0.97640477     7.5064807     -2718.4703     -4173.3238      1454.8535     -4173.3238     -5495.7539     -301.02677      1623.4569      5595.4176    
    148000   0.99184819     0.99935961     7.3922598     -2641.1769     -4130.437       1489.2601     -4130.437      -5394.0193     -297.75036      1561.3327      5546.2044    
    149000   1.0321123      1.0184365      7.3538028     -2715.0186     -4264.7352      1549.7166     -4264.7352     -5528.7838     -300.88371      1564.9323      5429.7691    
    150000   0.99959719     1.0056275      7.2805971     -2738.1352     -4239.0303      1500.8952     -4239.0303     -5496.7819     -300.43865      1558.1902      5325.5729    
    151000   1.0289781      1.0379437      7.4302244     -2606.1586     -4151.1692      1545.0106     -4151.1692     -5417.1209     -303.57887      1569.5306      5623.2707    
    152000   1.0322244      1.0051542      7.2859862     -2743.5938     -4293.4787      1549.8849     -4293.4787     -5548.0572     -301.08618      1555.6647      5326.083     
    153000   0.99290574     0.98777314     7.4111414     -2715.2315     -4206.0795      1490.848      -4206.0795     -5488.2633     -298.69228      1580.8761      5493.0623    
    154000   1.0232431      1.002549       7.4832487     -2576.5179     -4112.9175      1536.3995     -4112.9175     -5380.4272     -298.98254      1566.4923      5711.6392    
    155000   0.99957231     0.993225       7.3998062     -2706.7569     -4207.6147      1500.8578     -4207.6147     -5492.4998     -297.85312      1582.7382      5488.9825    
    156000   1.0106917      1.0033521      7.626077      -2707.9031     -4225.4568      1517.5537     -4225.4568     -5545.5586     -295.38229      1615.4841      5738.4451    
    157000   1.0366162      1.007748       7.4845725     -2668.4892     -4224.9684      1556.4792     -4224.9684     -5512.2309     -299.67956      1586.942       5621.134     
    158000   1.003129       0.9903599      7.0851563     -2745.8818     -4252.0801      1506.1983     -4252.0801     -5460.4237     -298.43359      1506.7772      5101.3636    
    159000   0.9811921      0.96145629     7.4034941     -2694.2193     -4167.4793      1473.2599     -4167.4793     -5437.6913     -304.61784      1574.8299      5505.6046    
    160000   1.0122234      1.0216257      7.3429913     -2659.058      -4178.9115      1519.8535     -4178.9115     -5430.3083     -304.24062      1555.6374      5473.7554    
    161000   1.0101734      1.0012881      7.7124336     -2708.487      -4225.2625      1516.7754     -4225.2625     -5570.0334     -303.23353      1648.0045      5833.5064    
    162000   1.0253127      1.0072906      7.427764      -2620.5017     -4160.0086      1539.507      -4160.0086     -5435.2005     -301.2312       1576.423       5606.2027    
    163000   1.0053971      0.98883397     7.5264044     -2642.8561     -4152.4599      1509.6038     -4152.4599     -5448.4588     -298.76316      1594.7621      5693.0985    
    164000   0.99929139     0.99094944     7.211373      -2759.3112     -4259.7472      1500.436      -4259.7472     -5522.4441     -298.61261      1561.3095      5227.7269    
    165000   1.0036357      0.99897649     7.3843135     -2756.3151     -4263.2742      1506.9591     -4263.2742     -5547.0217     -304.43829      1588.1858      5422.2651    
    166000   0.96124119     0.99834598     7.5638437     -2666.6426     -4109.9463      1443.3037     -4109.9463     -5409.3168     -305.34439      1604.7149      5710.7783    
    167000   1.0315616      0.99987255     7.4728765     -2609.3581     -4158.2478      1548.8897     -4158.2478     -5431.7952     -303.26751      1576.8148      5667.3111    
    168000   1.0532542      1.0317863      7.253664      -2664.8294     -4246.2906      1581.4612     -4246.2906     -5476.147      -302.1331       1531.9895      5369.0485    
    169000   0.96663063     0.96793258     7.1781291     -2756.7333     -4208.1292      1451.3959     -4208.1292     -5440.6598     -299.31489      1531.8455      5193.4851    
    170000   0.99373653     1.0068456      7.2225193     -2774.7645     -4266.8599      1492.0954     -4266.8599     -5517.4805     -303.0936       1553.7142      5224.6187    
    171000   1.0184668      0.99907106     7.6457399     -2626.5317     -4155.7596      1529.2279     -4155.7596     -5475.9402     -298.91532      1619.0959      5841.5943    
    172000   0.93972272     0.94358727     7.073797      -2809.4794     -4220.4731      1410.9937     -4220.4731     -5442.5183     -299.12104      1521.1663      5025.1848    
    173000   1.02031        1.0217667      7.4937604     -2730.5396     -4262.5351      1531.9955     -4262.5351     -5556.7186     -301.77303      1595.9566      5569.2598    
    174000   1.0324569      0.99833288     7.5244969     -2653.5755     -4203.8096      1550.234      -4203.8096     -5510.0179     -301.67734      1607.8857      5680.2665    
    175000   0.99489406     1.0027129      7.4567129     -2723.6717     -4217.5051      1493.8334     -4217.5051     -5505.4257     -299.68743      1587.608       5535.0954    
    176000   1.0218996      1.0331824      7.4081116     -2620.1174     -4154.4996      1534.3822     -4154.4996     -5419.7248     -299.869        1565.0941      5584.8208    
    177000   1.0640957      1.0235866      7.4816764     -2627.0407     -4224.7804      1597.7398     -4224.7804     -5506.341      -304.51125      1586.0718      5659.3749    
    178000   1.0044455      0.99588374     6.9689806     -2797.222      -4305.3969      1508.1749     -4305.3969     -5508.9861     -301.30131      1504.8905      4921.3515    
    179000   0.96822313     0.98301192     7.3617068     -2719.6765     -4173.4636      1453.787      -4173.4636     -5440.0756     -302.53262      1569.1446      5433.8654    
    180000   1.0028632      1.0123967      7.2298206     -2660.1809     -4165.98        1505.7991     -4165.98       -5416.2541     -299.62694      1549.901       5347.289     
    181000   0.97623083     0.98327769     7.5765826     -2638.0699     -4103.8805      1465.8106     -4103.8805     -5405.2507     -300.85512      1602.2252      5753.4601    
    182000   1.029188       1.0229113      6.982271      -2674.4114     -4219.7372      1545.3257     -4219.7372     -5400.3783     -298.79415      1479.4353      5058.8821    
    183000   1.0174321      0.99395332     7.5461102     -2555.2094     -4082.8837      1527.6743     -4082.8837     -5367.3387     -295.53351      1579.9885      5802.5706    
    184000   0.9802115      0.97495129     7.4501662     -2722.9054     -4194.693       1471.7876     -4194.693      -5483.5647     -301.57591      1590.4476      5528.6107    
    185000   1.0445873      1.0139018      7.5105843     -2616.8116     -4185.2594      1568.4479     -4185.2594     -5470.2869     -301.24416      1586.2717      5701.6214    
    186000   1.0163897      1.0089663      7.2512351     -2699.9545     -4226.0636      1526.1091     -4226.0636     -5464.6713     -298.13448      1536.7422      5331.2333    
    187000   1.0370219      1.0340463      7.5404412     -2674.113      -4231.2013      1557.0884     -4231.2013     -5530.2092     -300.65111      1599.659       5677.3883    
    188000   0.98303751     0.9889309      7.6332434     -2621.6728     -4097.7036      1476.0308     -4097.7036     -5396.2701     -298.22403      1596.7905      5832.6125    
    189000   0.98575967     1.0015185      7.3066547     -2650.932      -4131.0501      1480.1181     -4131.0501     -5375.831      -304.16741      1548.9482      5441.6364    
    190000   1.0626613      1.0388202      7.3308159     -2655.2166     -4250.8026      1595.5859     -4250.8026     -5518.4631     -300.54003      1568.2005      5464.1117    
    191000   1.0106184      1.0169123      7.8664951     -2603.4426     -4120.8861      1517.4435     -4120.8861     -5487.1878     -300.75575      1667.0575      6109.1834    
    192000   0.94442635     0.98078838     7.2578265     -2751.6802     -4169.7363      1418.0562     -4169.7363     -5425.6071     -297.50182      1553.3726      5286.808     
    193000   0.93844417     0.97055104     7.2760678     -2764.3428     -4173.4167      1409.0739     -4173.4167     -5422.6445     -295.95278      1545.1805      5294.3487    
    194000   1.0308421      1.005811       7.3358769     -2654.0639     -4201.8734      1547.8095     -4201.8734     -5472.082      -299.09593      1569.3045      5470.8698    
    195000   1.0054917      1.0017533      7.3954858     -2678.189      -4187.9347      1509.7458     -4187.9347     -5455.392      -303.32274      1570.78        5512.7653    
    196000   1.00373        0.99405199     7.7852845     -2641.279      -4148.3797      1507.1006     -4148.3797     -5496.862      -300.6322       1649.1146      5981.4012    
    197000   0.98039285     1.0028769      7.2743194     -2747.1532     -4219.213       1472.0599     -4219.213      -5477.1392     -302.42242      1560.3486      5309.6019    
    198000   0.98425388     0.97599896     7.3564739     -2693.3044     -4171.1616      1477.8572     -4171.1616     -5431.5885     -300.94972      1561.3766      5454.4418    
    199000   0.97088969     0.99735795     7.1173791     -2735.8921     -4193.683       1457.7909     -4193.683      -5430.5838     -299.97904      1536.8799      5147.0419    
    200000   0.99089808     0.99502053     7.6421588     -2659.7417     -4147.5751      1487.8335     -4147.5751     -5462.5353     -302.03368      1616.9939      5804.4181    
    201000   1.0056354      0.98560199     7.4405598     -2673.3815     -4183.343       1509.9615     -4183.343      -5472.4033     -301.38792      1590.4482      5567.495     
    202000   1.0302773      1.0065436      7.5879239     -2600.6941     -4147.6555      1546.9614     -4147.6555     -5441.783      -300.84901      1594.9765      5803.3971    
    203000   1.0463202      1.0352062      7.787346      -2593.8681     -4164.9178      1571.0497     -4164.9178     -5503.5897     -303.62959      1642.3015      6031.0953    
    204000   1.0676483      1.036711       7.6969        -2526.3732     -4129.4471      1603.0739     -4129.4471     -5443.5296     -302.87802      1616.9605      5998.4157    
    205000   1.0252722      1.0178747      7.3527328     -2720.8427     -4260.2889      1539.4462     -4260.2889     -5524.0217     -301.40921      1565.142       5422.76      
    206000   0.98055958     0.99188369     7.3190847     -2687.7552     -4160.0654      1472.3102     -4160.0654     -5424.2381     -303.78513      1567.9578      5418.5802    
    207000   1.0030935      1.005676       7.4034121     -2679.7558     -4185.9007      1506.1449     -4185.9007     -5482.2641     -296.16319      1592.5266      5519.9773    
    208000   1.0490275      1.0194554      7.6900958     -2556.2326     -4131.3474      1575.1148     -4131.3474     -5456.8969     -297.93883      1623.4884      5961.0203    
    209000   0.98178979     0.98610563     7.4614115     -2673.8373     -4147.9947      1474.1574     -4147.9947     -5462.152      -300.4589       1614.6162      5590.1337    
    210000   0.99809112     0.98100442     7.7297574     -2649.1566     -4147.7904      1498.6338     -4147.7904     -5488.3957     -300.13221      1640.7374      5912.0239    
    211000   0.99965867     1.007642       7.5194313     -2665.1298     -4166.1172      1500.9875     -4166.1172     -5455.9327     -302.99283      1592.8083      5663.1018    
    212000   0.98370806     0.98727615     7.3518823     -2744.2191     -4221.2567      1477.0376     -4221.2567     -5496.5926     -302.34387      1577.6798      5398.4417    
    213000   1.036344       1.0062604      7.4388228     -2669.4213     -4225.4918      1556.0705     -4225.4918     -5509.2978     -296.91949      1580.7255      5569.5313    
    214000   1.0382506      1.0123021      7.1091363     -2678.6264     -4237.5597      1558.9333     -4237.5597     -5440.8107     -300.16172      1503.4127      5195.1783    
    215000   1.050857       1.0168025      8.0088222     -2552.4297     -4130.2915      1577.8618     -4130.2915     -5518.7708     -301.767        1690.2463      6317.8323    
    216000   1.009906       0.99466081     7.3593007     -2650.0245     -4166.3983      1516.3738     -4166.3983     -5439.8261     -295.15658      1568.5844      5500.8526    
    217000   0.98095199     0.97671759     7.5908842     -2670.4081     -4143.3075      1472.8994     -4143.3075     -5458.7133     -300.27155      1615.6773      5736.9618    
    218000   0.9553557      0.94476186     7.3827648     -2747.2008     -4181.6674      1434.4666     -4181.6674     -5454.1236     -299.93379      1572.39        5429.6641    
    219000   1.0559851      1.028318       7.5506598     -2642.0542     -4227.6159      1585.5617     -4227.6159     -5532.1016     -303.22491      1607.7106      5720.7648    
    220000   0.97542006     0.97502849     7.4050862     -2708.5211     -4173.1143      1464.5932     -4173.1143     -5454.1987     -302.27505      1583.3594      5493.0662    
    221000   0.98671172     0.99349132     7.4112786     -2688.7837     -4170.3314      1481.5476     -4170.3314     -5446.8095     -303.05846      1579.5366      5519.662     
    222000   1.0072078      0.9959395      7.4032473     -2653.5043     -4165.8267      1512.3225     -4165.8267     -5425.9624     -298.00783      1558.1435      5546.0463    
    223000   1.0278898      1.0124286      7.122898      -2683.6254     -4227.0019      1543.3766     -4227.0019     -5460.8558     -293.09882      1526.9527      5205.4211    
    224000   0.9517914      0.95009001     7.6649796     -2739.2947     -4168.4095      1429.1148     -4168.4095     -5518.5658     -297.65452      1647.8109      5750.1405    
    225000   0.97132295     0.97727449     7.1911881     -2717.2981     -4175.7396      1458.4414     -4175.7396     -5419.5498     -299.90036      1543.7106      5247.3838    
    226000   0.9778616      0.98949365     6.9486819     -2770.3097     -4238.5689      1468.2592     -4238.5689     -5430.7371     -301.43628      1493.6045      4925.7818    
    227000   0.9897829      0.98364115     7.3426141     -2764.8019     -4250.9609      1486.159      -4250.9609     -5503.7357     -304.16125      1556.936       5367.5938    
    228000   1.0273183      1.013949       7.2243194     -2650.9        -4193.4185      1542.5184     -4193.4185     -5427.378      -303.1111       1537.0706      5350.477     
    229000   0.98806836     0.98379186     7.381598      -2687.6249     -4171.2095      1483.5846     -4171.2095     -5441.3806     -302.63257      1572.8036      5487.9478    
    230000   1.0041474      1.0100922      7.3232759     -2739.6309     -4247.3583      1507.7274     -4247.3583     -5519.511      -297.40387      1569.5565      5371.3464    
    231000   0.99416238     0.98860935     7.9701151     -2682.8477     -4175.5826      1492.7348     -4175.5826     -5564.178      -300.85433      1689.4498      6144.5437    
    232000   1.0312754      1.0121223      7.4078846     -2735.5913     -4284.0514      1548.4601     -4284.0514     -5570.5002     -302.06799      1588.5169      5469.0955    
    233000   1.0504468      1.0253627      7.4471704     -2644.7173     -4221.9631      1577.2458     -4221.9631     -5499.4854     -301.08485      1578.6071      5603.4808    
    234000   1.0285317      1.0055861      7.3539282     -2617.4228     -4161.7632      1544.3404     -4161.7632     -5433.1413     -297.23305      1568.6111      5527.5039    
    235000   0.97676909     0.99302325     7.1151882     -2779.9654     -4246.5842      1466.6188     -4246.5842     -5469.3025     -300.82994      1523.5482      5100.5421    
    236000   1.0329677      1.0312488      7.3901348     -2697.3825     -4248.3836      1551.0011     -4248.3836     -5514.1285     -299.05505      1564.7999      5487.6452    
    237000   1.0133502      1.0193578      7.293935      -2681.2665     -4202.8118      1521.5453     -4202.8118     -5461.795      -295.87456      1554.8577      5397.214     
    238000   1.0128623      1.0147762      7.6104359     -2660.4084     -4181.221       1520.8127     -4181.221      -5488.0084     -301.59108      1608.3785      5768.6163    
    239000   1.041396       1.0374457      7.6240121     -2617.8255     -4181.4816      1563.6561     -4181.4816     -5504.0504     -299.82769      1622.3965      5826.2356    
    240000   1.0281651      1.0086863      7.5031675     -2676.9975     -4220.7874      1543.7899     -4220.7874     -5518.3947     -304.16073      1601.768       5633.2209    
    241000   1.035517       1.0245644      7.1245609     -2636.5602     -4191.389       1554.8288     -4191.389      -5409.2679     -298.84139      1516.7203      5254.3281    
    242000   1.0079026      0.99457683     7.2321122     -2785.5894     -4298.9551      1513.3658     -4298.9551     -5552.7301     -301.20539      1554.9803      5224.4186    
    243000   0.95520624     0.96899064     7.5088691     -2750.1201     -4184.3622      1434.2422     -4184.3622     -5493.6004     -298.82066      1608.0589      5566.4132    
    244000   0.96839618     0.98359613     7.0787124     -2757.232      -4211.2788      1454.0469     -4211.2788     -5419.4063     -304.54997      1512.6775      5082.8763    
    245000   1.0242013      1.0349132      7.5583555     -2643.5828     -4181.421       1537.8382     -4181.421      -5484.5403     -301.31167      1604.431       5727.7597    
    246000   1.0043818      0.99640289     7.5091264     -2652.1553     -4160.2345      1508.0792     -4160.2345     -5457.1528     -299.21393      1596.1323      5664.6629    
    247000   0.97393023     1.0028263      7.0287299     -2785.4114     -4247.7677      1462.3562     -4247.7677     -5456.0345     -299.20311      1507.47        4999.3382    
    248000   0.96198784     0.97937758     7.07061       -2768.2005     -4212.6253      1444.4247     -4212.6253     -5431.1951     -303.11754      1521.6874      5062.9339    
    249000   0.99182524     1.0005002      7.0743669     -2781.6469     -4270.8725      1489.2256     -4270.8725     -5505.3502     -300.76754      1535.2452      5053.6484    
    250000   1.0305466      1.0189328      7.44539       -2672.0581     -4219.4239      1547.3657     -4219.4239     -5500.3553     -299.27231      1580.2037      5574.1681    
    251000   0.98146671     0.985252       7.1028422     -2773.6474     -4247.3197      1473.6723     -4247.3197     -5461.0077     -305.15009      1518.8381      5093.1862    
    252000   0.99368247     0.98878187     7.2460968     -2757.8641     -4249.8784      1492.0142     -4249.8784     -5502.4238     -302.35762      1554.903       5267.6326    
    253000   1.0021365      0.99032112     7.272455      -2692.7787     -4197.4867      1504.708      -4197.4867     -5456.0361     -298.78787      1557.3372      5361.9114    
    254000   0.98701607     0.9885039      7.0922894     -2757.1649     -4239.1696      1482.0046     -4239.1696     -5461.3578     -297.32265      1519.5109      5097.9807    
    255000   1.0228199      0.99638283     7.44334       -2618.2575     -4154.0217      1535.7641     -4154.0217     -5443.0851     -299.07219      1588.1356      5625.6982    
    256000   1.0004641      1.0099711      7.1847451     -2704.3987     -4206.5956      1502.1968     -4206.5956     -5449.5228     -299.61752      1542.5447      5253.1473    
    257000   1.0205316      1.0303031      7.5750276     -2622.2062     -4154.5345      1532.3283     -4154.5345     -5449.2689     -304.66431      1599.3987      5767.6015    
    258000   1.0054282      1.0036112      7.7004167     -2643.5861     -4153.2365      1509.6504     -4153.2365     -5479.9907     -301.87092      1628.6251      5885.0979    
    259000   1.0255562      1.0020715      7.5996696     -2646.275      -4186.1476      1539.8726     -4186.1476     -5505.9954     -299.26766      1619.1155      5770.8253    
    260000   1.0098907      1.0127242      7.7599849     -2559.5774     -4075.9283      1516.3509     -4075.9283     -5412.1847     -300.70143      1636.9578      6035.082     
    261000   1.0130554      1.0029025      7.5825321     -2686.8276     -4207.9303      1521.1027     -4207.9303     -5522.3091     -302.59756      1616.9763      5711.2919    
    262000   1.005254       1.0150016      7.2156181     -2710.2545     -4219.6433      1509.3888     -4219.6433     -5459.6178     -298.75555      1538.73        5281.4853    
    263000   1.0100657      0.98783384     7.29645       -2699.2982     -4215.9119      1516.6137     -4215.9119     -5475.6599     -299.70574      1559.4537      5381.9678    
    264000   0.99457401     1.0096342      7.2305699     -2665.436      -4158.7888      1493.3529     -4158.7888     -5402.9653     -301.28748      1545.4639      5342.8638    
    265000   1.0316097      0.99812263     7.4173774     -2655.486      -4204.4479      1548.9619     -4204.4479     -5480.1058     -300.55415      1576.212       5559.7145    
    266000   0.9888384      0.99813381     7.288542      -2687.7406     -4172.4815      1484.7409     -4172.4815     -5442.5575     -304.04581      1574.1218      5384.7668    
    267000   1.0449786      0.99818316     7.4076819     -2584.2843     -4153.3197      1569.0354     -4153.3197     -5420.9454     -297.6104       1565.2362      5620.1779    
    268000   1.038173       1.0225502      7.4387878     -2594.1312     -4152.948       1558.8167     -4152.948      -5423.4334     -294.75617      1565.2416      5644.7827    
    269000   0.98078652     0.97909893     7.5072105     -2667.0357     -4139.6867      1472.651      -4139.6867     -5428.3007     -297.34302      1585.957       5647.6605    
    270000   0.99451363     0.99473562     7.4153727     -2692.0175     -4185.2797      1493.2622     -4185.2797     -5464.1275     -293.83484      1572.6827      5520.9628    
    271000   1.0214302      1.0017783      7.6712744     -2590.6522     -4124.3296      1533.6774     -4124.3296     -5451.2501     -298.24751      1625.1681      5905.7549    
    272000   1.0254455      1.0191708      7.205643      -2692.0691     -4231.7756      1539.7065     -4231.7756     -5464.6103     -303.08806      1535.9228      5288.6226    
    273000   0.98954657     0.98603654     7.3706553     -2709.2479     -4195.052       1485.8042     -4195.052      -5470.8742     -301.13107      1576.9532      5454.2051    
    274000   0.99278909     0.98643406     7.4428726     -2648.461      -4139.1338      1490.6728     -4139.1338     -5422.3771     -301.88419      1585.1275      5594.9771    
    275000   0.98949612     1.0000462      7.4017623     -2704.8775     -4190.606       1485.7284     -4190.606      -5475.1097     -297.07348      1581.5772      5493.0284    
    276000   0.99438063     1.0065169      7.3565886     -2623.4232     -4116.4857      1493.0625     -4116.4857     -5369.4513     -301.09934      1554.0649      5524.45      
    277000   1.0304202      1.0360227      7.2850787     -2670.1124     -4217.2883      1547.1759     -4217.2883     -5464.1523     -302.93426      1549.7983      5398.5593    
    278000   0.97440301     0.97796197     7.2304737     -2702.8292     -4165.8953      1463.0661     -4165.8953     -5410.5071     -297.15473      1541.7665      5305.364     
    279000   0.98330305     0.99597483     7.1586376     -2703.3747     -4179.8042      1476.4295     -4179.8042     -5413.3269     -299.15766      1532.6803      5225.2556    
    280000   0.97591056     1.0045911      7.5703724     -2682.1052     -4147.4349      1465.3297     -4147.4349     -5453.2658     -297.86277      1603.6937      5702.5467    
    281000   1.0074352      0.99308819     7.5106781     -2675.0942     -4187.7582      1512.664      -4187.7582     -5494.267      -298.2443       1604.753       5643.4425    
    282000   0.9639656      1.0119535      7.3686483     -2727.4836     -4174.8779      1447.3944     -4174.8779     -5450.0768     -301.84134      1577.0402      5433.7465    
    283000   0.96390568     1.008352       7.45865       -2713.1274     -4160.4318      1447.3044     -4160.4318     -5453.7841     -302.82822      1596.1806      5547.7851    
    284000   1.024937       1.0093701      7.4040634     -2685.4223     -4224.3652      1538.9429     -4224.3652     -5500.5247     -302.14123      1578.3008      5515.0322    
    285000   1.0215291      1.0331712      7.5872385     -2554.2107     -4088.0365      1533.8259     -4088.0365     -5385.7886     -296.04474      1593.7968      5849.1215    
    286000   0.99338511     0.99311858     7.2581268     -2733.2019     -4224.7697      1491.5677     -4224.7697     -5487.6619     -299.83338      1562.7256      5305.6188    
    287000   1.0111421      1.0095536      7.5115912     -2632.3797     -4150.6095      1518.2299     -4150.6095     -5426.8492     -297.5479       1573.7876      5687.1684    
    288000   1.0010115      1.0028755      7.3605536     -2748.92       -4251.9388      1503.0188     -4251.9388     -5532.5155     -302.9283       1583.505       5403.3447    
    289000   1.0193383      1.0132245      7.4710359     -2651.0684     -4181.6048      1530.5364     -4181.6048     -5476.2883     -301.72139      1596.4049      5623.5623    
    290000   1.0294256      1.0173322      7.3354918     -2714.4886     -4260.1711      1545.6826     -4260.1711     -5513.2685     -301.23587      1554.3332      5410.0187    
    291000   1.0053759      1.0037381      7.7117779     -2657.4873     -4167.0593      1509.572      -4167.0593     -5503.6284     -298.69539      1635.2645      5883.7799    
    292000   1.0481222      1.0413201      7.3087643     -2642.5975     -4216.3529      1573.7554     -4216.3529     -5470.9485     -297.62313      1552.2187      5452.3074    
    293000   0.97578489     0.99562858     7.242069      -2754.0741     -4219.2152      1465.141      -4219.2152     -5473.9466     -303.10683      1557.8383      5266.9616    
    294000   1.0419402      1.0326458      7.2629917     -2671.8168     -4236.29        1564.4732     -4236.29       -5472.6709     -301.86028      1538.2412      5372.3922    
    295000   1.0156018      1.0010136      7.6329274     -2586.648      -4111.5741      1524.9261     -4111.5741     -5423.5029     -295.71582      1607.6447      5867.2874    
    296000   1.001531       1.0233542      7.4982098     -2669.213      -4173.0118      1503.7988     -4173.0118     -5466.7825     -298.28528      1592.056       5635.5144    
    297000   1.0056202      1.013404       7.7329799     -2620.0608     -4129.9995      1509.9387     -4129.9995     -5452.327      -301.27053      1623.598       5944.6889    
    298000   1.003115       1.0096897      7.4347795     -2632.4023     -4138.5795      1506.1772     -4138.5795     -5403.7735     -300.39972      1565.5938      5602.0722    
    299000   1.0142928      1.0327382      7.1861811     -2656.4101     -4179.3708      1522.9607     -4179.3708     -5416.2258     -298.62952      1535.4846      5302.7264    
    300000   1.0346498      1.0081012      7.6075673     -2620.2474     -4173.774       1553.5266     -4173.774      -5482.6522     -303.80397      1612.6822      5805.6002    
    301000   1.036842       1.0169145      7.0296829     -2662.2827     -4219.101       1556.8182     -4219.101      -5417.6322     -291.73587      1490.2671      5123.5224    
    302000   0.97338219     0.9599967      7.4501907     -2760.8431     -4222.3765      1461.5334     -4222.3765     -5526.2383     -300.17109      1604.0329      5490.7002    
    303000   1.0044191      1.0130185      7.2482293     -2677.3196     -4185.4548      1508.1352     -4185.4548     -5444.0701     -298.78742      1557.4027      5350.5391    
    304000   0.97266276     1.0055842      7.5301484     -2657.8837     -4118.3368      1460.4531     -4118.3368     -5420.1308     -295.24695      1597.0409      5682.2177    
    305000   0.9980626      0.99455709     7.3408397     -2654.7166     -4153.3076      1498.591      -4153.3076     -5419.2379     -304.84239      1570.7727      5475.7138    
    306000   0.9939634      0.99850192     7.1640453     -2665.0917     -4157.5277      1492.436      -4157.5277     -5381.0198     -302.26468      1525.7568      5269.528     
    307000   1.0587638      1.01835        7.5343415     -2539.4487     -4129.1826      1589.7338     -4129.1826     -5419.5857     -295.69337      1586.0964      5805.2967    
    308000   1.0329986      1.0147837      7.6623126     -2612.3675     -4163.4149      1551.0475     -4163.4149     -5482.709      -303.9002       1623.1943      5874.1139    
    309000   1.0191453      1.0309274      7.4649524     -2619.6909     -4149.9376      1530.2467     -4149.9376     -5438.9524     -297.69007      1586.7049      5648.2019    
    310000   1.0102379      1.0318131      7.3999243     -2732.8082     -4249.6804      1516.8722     -4249.6804     -5526.3599     -304.36913      1581.0486      5463.062     
    311000   0.95695366     0.9983109      7.3012475     -2774.2899     -4211.1558      1436.8659     -4211.1558     -5469.8756     -301.32207      1560.0418      5312.2896    
    312000   1.0201881      1.0101963      7.3213188     -2621.8629     -4153.6753      1531.8124     -4153.6753     -5419.3019     -300.80606      1566.4327      5486.9469    
    313000   1.0308606      1.0085635      7.379785      -2714.6101     -4262.4473      1547.8372     -4262.4473     -5546.3315     -299.00106      1582.8853      5458.9546    
    314000   1.0167946      1.0324622      7.3762361     -2705.2432     -4231.9602      1526.7171     -4231.9602     -5505.588      -299.0789       1572.7067      5464.3909    
    315000   1.0020547      1.0055456      7.1917573     -2707.4537     -4212.0388      1504.5851     -4212.0388     -5436.0794     -301.93491      1525.9755      5257.8588    
    316000   1.0066111      1.0083588      7.4270754     -2700.6704     -4212.0969      1511.4265     -4212.0969     -5507.2407     -297.94968      1593.0935      5525.2713    
    317000   1.009          1.0073385      7.3028506     -2649.8536     -4164.8671      1515.0135     -4164.8671     -5429.2919     -298.20545      1562.6302      5438.5016    
    318000   0.99907878     1.0166402      7.5918032     -2665.3476     -4165.4644      1500.1168     -4165.4644     -5490.194      -300.62722      1625.3568      5743.0402    
    319000   1.0667475      1.0460663      7.7683346     -2518.5886     -4120.31        1601.7214     -4120.31       -5452.7475     -297.92373      1630.3613      6085.3186    
    320000   1.0018743      0.99550953     7.4432056     -2650.3942     -4154.7084      1504.3142     -4154.7084     -5434.4311     -295.96604      1575.6888      5593.4127    
    321000   1.0057918      1.0057328      7.8699445     -2588.5008     -4098.6973      1510.1965     -4098.6973     -5464.8754     -300.69159      1666.8698      6127.9456    
    322000   1.0005285      0.99707258     7.3858339     -2722.5771     -4224.8707      1502.2936     -4224.8707     -5505.4059     -298.80607      1579.3414      5457.687     
    323000   1.0211466      1.0089921      7.5260627     -2627.7747     -4161.0263      1533.2515     -4161.0263     -5468.9058     -301.58715      1609.4667      5707.8015    
    324000   0.98533135     0.99006881     7.9799407     -2630.3281     -4109.8031      1479.475      -4109.8031     -5499.8054     -302.89892      1692.9012      6207.9458    
    325000   0.98295926     0.9992682      7.4464043     -2744.6976     -4220.6109      1475.9133     -4220.6109     -5511.3275     -302.52862      1593.2452      5502.652     
    326000   1.0257793      0.99949678     7.2913111     -2705.1722     -4245.3797      1540.2076     -4245.3797     -5506.43       -299.65295      1560.7032      5370.4022    
    327000   1.035209       1.0211656      7.411632      -2676.4087     -4230.775       1554.3663     -4230.775      -5517.0571     -298.61203      1584.8942      5532.4284    
    328000   1.0305105      0.99999136     7.3942169     -2683.4239     -4230.7354      1547.3115     -4230.7354     -5514.9075     -301.13121      1585.3034      5506.125     
    329000   0.99085303     0.99554709     7.4453047     -2697.9077     -4185.6735      1487.7658     -4185.6735     -5463.349      -299.14282      1576.8183      5548.2241    
    330000   1.0125717      1.0111201      7.4533534     -2731.7147     -4252.0911      1520.3763     -4252.0911     -5543.1923     -306.56701      1597.6683      5523.3315    
    331000   1.0041401      1.0024284      7.4976493     -2647.5065     -4155.2229      1507.7164     -4155.2229     -5446.6311     -296.67542      1588.0836      5656.6001    
    332000   1.0084611      1.0076719      7.8373483     -2590.6553     -4104.8597      1514.2044     -4104.8597     -5455.2693     -301.80583      1652.2155      6089.6888    
    333000   0.9822032      0.98294282     7.4130948     -2715.1233     -4189.9014      1474.7781     -4189.9014     -5480.3374     -298.02164      1588.4576      5495.3341    
    334000   1.0265384      0.99914368     7.5932067     -2644.7115     -4186.0589      1541.3474     -4186.0589     -5509.7929     -304.49533      1628.2293      5765.2307    
    335000   1.0145667      0.98562084     7.1561928     -2756.8804     -4280.2523      1523.3719     -4280.2523     -5526.9966     -301.15852      1547.9028      5169.0422    
    336000   0.97093291     1.0025023      7.3821808     -2752.5083     -4210.364       1457.8558     -4210.364      -5488.2127     -303.49434      1581.343       5423.7099    
    337000   0.97157907     0.9877185      7.3201116     -2746.4426     -4205.2686      1458.826      -4205.2686     -5486.2397     -298.46514      1579.4363      5361.0301    
    338000   0.97377223     0.97558371     7.2555804     -2760.3221     -4222.4411      1462.119      -4222.4411     -5479.346      -304.93761      1561.8426      5275.6784    
    339000   0.98074252     1.0246626      7.1389411     -2753.1506     -4225.7355      1472.5849     -4225.7355     -5458.3302     -304.34349      1536.9382      5153.6647    
    340000   0.98491813     0.97419268     7.0817898     -2759.9769     -4238.8315      1478.8546     -4238.8315     -5466.5976     -299.66424      1527.4303      5083.5398    
    341000   0.99314357     0.98093889     7.2854684     -2747.2944     -4238.4994      1491.2051     -4238.4994     -5492.4053     -303.12963      1557.0355      5321.8088    
    342000   0.97958027     0.96668135     7.9571255     -2614.4916     -4085.3314      1470.8398     -4085.3314     -5477.9656     -297.04918      1689.6834      6198.5131    
    343000   0.98642311     0.99003755     7.1850269     -2735.1342     -4216.2485      1481.1143     -4216.2485     -5437.5019     -303.48198      1524.7354      5222.724     
    344000   1.0225531      1.0299424      7.5536896     -2647.8002     -4183.1638      1535.3635     -4183.1638     -5487.7663     -299.66006      1604.2626      5718.3744    
    345000   0.92933112     0.96026615     7.3315238     -2824.4741     -4219.8647      1395.3907     -4219.8647     -5508.5707     -296.83031      1585.5363      5295.6383    
    346000   0.99783318     0.98636391     7.6160566     -2752.7498     -4250.9963      1498.2465     -4250.9963     -5581.9815     -302.50912      1633.4943      5682.5001    
    347000   1.0205564      0.99502631     7.5782251     -2619.1238     -4151.4892      1532.3654     -4151.4892     -5457.7728     -300.04903      1606.3326      5774.2254    
    348000   1.0072373      1.017759       7.294425      -2684.6041     -4196.971       1512.3669     -4196.971      -5455.454      -298.4264       1556.9094      5394.4191    
    349000   1.0392013      1.018791       7.6944634     -2612.021      -4172.3818      1560.3608     -4172.3818     -5503.5059     -298.86521      1629.9893      5910.0694    
    350000   0.99212179     0.98620165     7.2295602     -2708.8956     -4198.5664      1489.6709     -4198.5664     -5454.8982     -300.81984      1557.1516      5298.2859    
    351000   0.99804615     0.99718056     7.6111901     -2656.4524     -4155.0187      1498.5663     -4155.0187     -5464.1456     -299.24009      1608.367       5773.4076    
    352000   1.0015827      0.99351375     7.3854946     -2656.1549     -4160.0313      1503.8764     -4160.0313     -5431.2242     -303.49114      1574.6841      5523.7336    
    353000   0.99832937     1.005904       7.2373474     -2770.0172     -4269.0087      1498.9916     -4269.0087     -5527.0558     -304.77803      1562.8251      5245.7891    
    354000   1.0150926      0.99509267     7.4157771     -2703.9132     -4228.0747      1524.1615     -4228.0747     -5511.5404     -299.03688      1582.5026      5509.5149    
    355000   0.9924832      0.98063585     7.0205199     -2799.9146     -4290.1281      1490.2135     -4290.1281     -5503.726      -300.67733      1514.2752      4975.742     
[...]
    396000   0.97863516     0.97479964     7.1323664     -2758.3437     -4227.7644      1469.4207     -4227.7644     -5457.4259     -298.77646      1528.4379      5141.1897    
    397000   0.99009272     1.0111946      7.6978435     -2680.9215     -4167.5457      1486.6242     -4167.5457     -5510.6216     -300.9494       1644.0253      5844.9124    
    398000   0.9904402      1.0011262      7.8332409     -2646.77       -4133.9159      1487.146      -4133.9159     -5483.9245     -303.81355      1653.8221      6029.025     
    399000   0.97396797     0.98080503     7.3349171     -2762.4285     -4224.8414      1462.4129     -4224.8414     -5504.9199     -303.54655      1583.6251      5361.4423    
    400000   1.0230674      0.99267394     7.340895      -2727.0998     -4263.2354      1536.1356     -4263.2354     -5526.4691     -303.74898      1566.9827      5403.3918    
    401000   1.0206219      1.0268088      7.5160321     -2656.7815     -4189.2453      1532.4638     -4189.2453     -5477.2256     -302.75388      1590.7342      5667.6852    
    402000   1.0305257      1.0030856      7.7276707     -2586.3674     -4133.7017      1547.3343     -4133.7017     -5472.2396     -299.01419      1637.5521      5972.5021    
    403000   1.0158116      1.0041229      7.4559828     -2711.8113     -4237.0524      1525.2411     -4237.0524     -5534.8675     -303.38429      1601.1994      5546.147     
    404000   1.0093216      1.0180505      7.0617087     -2762.3649     -4277.8613      1515.4964     -4277.8613     -5502.1374     -293.98154      1518.2576      5058.9108    
    405000   1.0459615      1.0248106      7.2528947     -2671.3854     -4241.8965      1570.5111     -4241.8965     -5483.4878     -303.57086      1545.1621      5361.6404    
    406000   1.0319241      1.0000862      7.4216303     -2632.1009     -4181.535       1549.4341     -4181.535      -5438.3852     -298.13472      1554.9849      5587.81      
    407000   1.05584        1.043609       7.2399851     -2661.1017     -4246.4455      1585.3437     -4246.4455     -5492.3055     -302.94342      1548.8034      5357.626     
    408000   1.027655       1.016889       7.6498076     -2606.3281     -4149.3521      1543.024      -4149.3521     -5464.5735     -303.47987      1618.7012      5866.3032    
    409000   1.0504847      1.0537756      7.2934106     -2632.9449     -4210.2476      1577.3027     -4210.2476     -5445.7044     -305.85973      1541.3165      5444.9549    
    410000   0.98120798     0.98125958     7.5820746     -2670.4973     -4143.7811      1473.2838     -4143.7811     -5464.369      -299.00651      1619.5944      5727.1154    
    411000   1.0325045      1.0073105      7.3615547     -2651.6623     -4201.9678      1550.3055     -4201.9678     -5465.3355     -299.78833      1563.156       5501.7112    
    412000   1.0630722      1.0239364      7.4750742     -2549.3048     -4145.5078      1596.2029     -4145.5078     -5423.4813     -301.56039      1579.5339      5729.7985    
    413000   0.99369981     0.983977       7.3146257     -2666.3619     -4158.4021      1492.0403     -4158.4021     -5413.5105     -302.1001       1557.2084      5435.0348    
    414000   0.9868562      0.99138874     7.6521721     -2689.3168     -4171.0814      1481.7646     -4171.0814     -5491.5302     -301.19482      1621.6436      5785.9333    
    415000   1.0258433      1.0141147      7.6267496     -2619.9196     -4160.2233      1540.3037     -4160.2233     -5476.2068     -299.01646      1615           5827.1735    
    416000   1.0111957      1.0147538      7.51039       -2634.713      -4153.0233      1518.3103     -4153.0233     -5447.6324     -301.68532      1596.2944      5683.5048    
    417000   0.95761304     0.9745592      7.5965652     -2720.0145     -4157.8705      1437.856      -4157.8705     -5470.9001     -302.21349      1615.2431      5693.6476    
    418000   1.039662       1.0274537      7.3331304     -2682.298      -4243.3505      1561.0525     -4243.3505     -5513.2783     -299.83105      1569.7588      5439.5937    
    419000   1.0435952      1.0122293      7.0710584     -2721.6327     -4288.591       1566.9582     -4288.591      -5494.4124     -297.98288      1503.8043      5109.9982    
    420000   0.9820529      0.98524056     7.6414325     -2701.6171     -4176.1695      1474.5524     -4176.1695     -5509.0296     -295.03473      1627.8948      5761.7383    
    421000   0.97685592     1.0212914      7.0080911     -2809.1806     -4275.9298      1466.7492     -4275.9298     -5483.6755     -299.49149      1507.2372      4952.7103    
    422000   0.98551731     1.0131529      7.1539317     -2782.9749     -4262.7292      1479.7542     -4262.7292     -5498.9179     -299.99319      1536.1819      5140.4434    
    423000   1.0170331      1.0219055      7.476993      -2629.3907     -4156.466       1527.0752     -4156.466      -5444.0226     -297.22369      1584.7803      5651.8377    
    424000   0.98843448     0.98681889     7.5659677     -2704.5081     -4188.6425      1484.1344     -4188.6425     -5500.3988     -300.77277      1612.5291      5675.2653    
    425000   0.9681587      0.99451082     7.2334605     -2731.6891     -4185.3794      1453.6903     -4185.3794     -5434.1035     -300.24149      1548.9656      5279.8122    
    426000   0.96161107     0.9623797      7.2457454     -2790.9354     -4234.7944      1443.859      -4234.7944     -5489.6351     -301.99665      1556.8374      5234.1722    
    427000   1.0404757      1.0296588      7.6899171     -2633.9594     -4196.2337      1562.2743     -4196.2337     -5526.5218     -298.91571      1629.2038      5883.0956    
    428000   0.95837835     1.0049989      7.2683096     -2829.1018     -4268.1069      1439.0051     -4268.1069     -5550.4831     -299.36392      1581.7402      5220.9971    
    429000   1.0027202      0.9811541      7.281806      -2736.8309     -4242.4153      1505.5844     -4242.4153     -5502.454      -300.61995      1560.6587      5328.2161    
    430000   1.0368286      1.0192489      7.3901755     -2644.8773     -4201.6755      1556.7982     -4201.6755     -5466.1212     -303.15767      1567.6033      5540.1954    
    431000   1.0323841      1.0586161      7.4252858     -2687.1809     -4237.3056      1550.1247     -4237.3056     -5513.1792     -299.92471      1575.7983      5536.7786    
    432000   1.0060822      0.99315659     7.3955711     -2695.9541     -4206.5866      1510.6325     -4206.5866     -5491.5872     -299.1587       1584.1593      5495.0946    
    433000   1.0220496      0.99550087     7.6000849     -2678.5577     -4213.1652      1534.6074     -4213.1652     -5531.1592     -300.91724      1618.9113      5739.0026    
    434000   0.9517167      0.99319903     7.2043286     -2784.458      -4213.4606      1429.0026     -4213.4606     -5454.1759     -297.46264      1538.178       5194.778     
    435000   1.0367108      1.0179604      7.4108869     -2654.964      -4211.5853      1556.6213     -4211.5853     -5474.8996     -302.77555      1566.0898      5553.0479    
    436000   0.96545355     0.96795979     7.1198015     -2817.3485     -4266.977       1449.6285     -4266.977      -5496.0375     -301.02817      1530.0887      5068.2685    
    437000   0.9979565      1.0099194      7.3077308     -2666.1334     -4164.5651      1498.4317     -4164.5651     -5408.2987     -299.84886      1543.5825      5427.6268    
    438000   1.0181865      1.0145307      7.5011525     -2675.5285     -4204.3355      1528.807      -4204.3355     -5490.8347     -305.10039      1591.5996      5632.4582    
    439000   0.98430268     0.99299986     7.5130639     -2683.524      -4161.4544      1477.9305     -4161.4544     -5463.8209     -296.14949      1598.516       5637.6552    
    440000   1.0481267      1.0348496      7.5093763     -2592.9516     -4166.7138      1573.7622     -4166.7138     -5443.1463     -301.73939      1578.1719      5724.1435    
    441000   0.99112423     0.97868742     7.5949588     -2681.8425     -4170.0155      1488.173      -4170.0155     -5483.4724     -302.90381      1616.3608      5730.0404    
    442000   1.0230096      1.020913       7.4650033     -2618.8461     -4154.8949      1536.0489     -4154.8949     -5432.2738     -299.54707      1576.9259      5649.1031    
    443000   0.9996725      0.99978269     7.486113      -2706.4165     -4207.4248      1501.0083     -4207.4248     -5500.0852     -303.45659      1596.117       5584.913     
    444000   1.0050664      0.98950196     7.4231924     -2751.4463     -4260.5535      1509.1072     -4260.5535     -5553.3258     -297.85297      1590.6253      5470.1947    
    445000   1.0230686      1.0196476      7.2670097     -2700.887      -4237.0245      1536.1376     -4237.0245     -5493.1956     -299.36581      1555.5369      5347.7721    
    446000   1.0245642      1.002405       7.3590135     -2616.6535     -4155.0366      1538.3831     -4155.0366     -5418.1574     -301.06993      1564.1907      5533.9054    
    447000   0.95946563     0.96262931     7.2554442     -2701.2459     -4141.8836      1440.6376     -4141.8836     -5398.352      -296.18722      1552.6557      5334.6037    
    448000   1.0114773      1.0127144      7.5449327     -2653.2408     -4171.9739      1518.7331     -4171.9739     -5468.0505     -300.95971      1597.0364      5703.2351    
    449000   0.99658691     0.99719236     7.3383793     -2707.9227     -4204.2979      1496.3752     -4204.2979     -5468.9768     -301.63939      1566.3182      5419.7827    
    450000   0.98895616     0.98415515     7.2055841     -2781.9287     -4266.8464      1484.9177     -4266.8464     -5526.2541     -297.01737      1556.425       5198.6977    
    451000   1.0489006      1.0490638      7.5633514     -2562.1344     -4137.0586      1574.9242     -4137.0586     -5432.0783     -297.04069      1592.0603      5814.7414    
    452000   1.0212778      0.9906875      7.5523676     -2615.4227     -4148.8713      1533.4486     -4148.8713     -5450.1121     -297.40879      1598.6496      5749.2878    
    453000   1.0215875      1.0240256      7.5915443     -2676.1381     -4210.0517      1533.9136     -4210.0517     -5521.7137     -301.1817       1612.8437      5731.9629    
    454000   1.0218104      1.0288139      7.2838575     -2626.4913     -4160.7397      1534.2483     -4160.7397     -5404.6573     -300.3641       1544.2817      5440.8278    
    455000   1.0556482      1.0479778      7.4607237     -2612.4387     -4197.4944      1585.0558     -4197.4944     -5483.4546     -304.87331      1590.8335      5650.7705    
    456000   1.0081559      0.99671515     7.4974684     -2683.0745     -4196.8205      1513.7461     -4196.8205     -5486.6162     -300.33555      1590.1312      5620.8317    
    457000   0.99102886     0.98873581     7.4818662     -2592.948      -4080.9778      1488.0298     -4080.9778     -5370.9191     -298.98197      1588.9233      5693.6779    
    458000   1.0306291      1.0377827      7.3620051     -2589.0608     -4136.5504      1547.4896     -4136.5504     -5396.0973     -297.24502      1556.7919      5564.8115    
    459000   1.0054672      1.0171786      7.3213224     -2673.5721     -4183.2811      1509.709      -4183.2811     -5442.2099     -300.32892      1559.2578      5435.2417    
    460000   1.0520932      1.042571       7.2394708     -2645.0044     -4224.7223      1579.7179     -4224.7223     -5463.0043     -294.11674      1532.3987      5373.1537    
    461000   1.0492958      1.0033332      7.6341617     -2604.6034     -4180.1211      1575.5177     -4180.1211     -5499.4538     -301.60301      1620.9357      5850.699     
    462000   0.94443169     0.97545135     7.2478577     -2766.2295     -4184.2937      1418.0642     -4184.2937     -5445.6167     -299.01033      1560.3334      5261.2176    
    463000   1.0121716      0.99026997     7.6776526     -2596.5699     -4116.3456      1519.7757     -4116.3456     -5446.7481     -298.62005      1629.0226      5906.9014    
    464000   1.0146566      1.020226       7.3000069     -2692.7619     -4216.2687      1523.5069     -4216.2687     -5484.3758     -298.51094      1566.618       5392.4436    
    465000   1.0168479      0.99797618     7.3735847     -2700.1366     -4226.9337      1526.7972     -4226.9337     -5503.8454     -301.77838      1578.69        5466.5609    
    466000   1.0399784      1.0458369      7.1825065     -2569.5016     -4131.0291      1561.5275     -4131.0291     -5352.8566     -297.99679      1519.8243      5385.565     
    467000   1.0179072      1.0115204      7.0993868     -2731.8013     -4260.189       1528.3877     -4260.189      -5475.5164     -299.74414      1515.0715      5131.2051    
    468000   1.0147387      0.99959036     7.581383      -2639.6499     -4163.28        1523.6301     -4163.28       -5467.736      -297.84104      1602.2971      5757.1969    
    469000   1.0321907      0.99937208     7.3997479     -2619.8743     -4169.7086      1549.8343     -4169.7086     -5440.3472     -297.26234      1567.901       5575.8004    
    470000   1.0668856      1.0275609      7.486577      -2626.2607     -4228.1895      1601.9288     -4228.1895     -5518.7129     -301.71525      1592.2387      5665.5827    
    471000   0.99971502     1.0081609      7.3440205     -2707.2204     -4208.2925      1501.0721     -4208.2925     -5472.3949     -305.16669      1569.2691      5426.7329    
    472000   1.0140251      1.0196178      7.4534719     -2662.5318     -4185.0905      1522.5587     -4185.0905     -5484.0978     -305.64578      1604.653       5592.6456    
    473000   1.0390896      1.0120341      7.2710449     -2638.9241     -4199.1172      1560.1931     -4199.1172     -5439.748      -300.70605      1541.3369      5414.2042    
    474000   0.97365537     0.96793176     7.0268966     -2811.4393     -4273.3828      1461.9435     -4273.3828     -5484.332      -299.39934      1510.3484      4971.2798    
    475000   0.92263552     0.9502981      7.1752508     -2854.9063     -4240.2435      1385.3372     -4240.2435     -5483.0643     -300.77252      1543.5933      5092.1242    
    476000   0.95905299     0.99829927     7.2314782     -2770.142      -4210.1601      1440.0181     -4210.1601     -5471.3739     -302.63217      1563.8459      5239.1638    
    477000   0.98479347     0.99413513     7.1040354     -2705.3601     -4184.0275      1478.6674     -4184.0275     -5393.2966     -302.17688      1511.4459      5162.7949    
    478000   1.0231839      1.0103137      7.7211505     -2641.5315     -4177.8421      1536.3106     -4177.8421     -5511.4823     -304.00393      1637.6441      5910.1164    
    479000   1.0521721      1.0416379      7.3239329     -2559.8154     -4139.6518      1579.8364     -4139.6518     -5385.4837     -299.85389      1545.6858      5551.8897    
    480000   0.99839309     0.97333783     7.355151      -2730.9978     -4230.0851      1499.0872     -4230.0851     -5497.9657     -300.36067      1568.2413      5415.2832    
    481000   1.0353802      0.98227855     7.5554042     -2579.2911     -4133.9145      1554.6234     -4133.9145     -5432.7478     -304.36471      1603.198       5788.7826    
    482000   0.96905638     0.9929483      7.2065423     -2803.4089     -4258.4471      1455.0382     -4258.4471     -5508.204      -300.63125      1550.3882      5178.2788    
    483000   1.0135576      0.99336716     7.8390483     -2617.9155     -4139.7722      1521.8567     -4139.7722     -5503.9402     -301.64953      1665.8175      6064.3114    
    484000   1.0098935      1.0021491      7.4724123     -2601.3018     -4117.657       1516.3551     -4117.657      -5398.4603     -298.66483      1579.4681      5674.8533    
    485000   1.0123623      0.99260624     7.7350345     -2523.1413     -4043.2033      1520.0621     -4043.2033     -5363.814      -299.75774      1620.3684      6043.884     
    486000   0.99550512     0.96962814     7.4755852     -2742.4318     -4237.1827      1494.7509     -4237.1827     -5538.898      -301.58242      1603.2977      5537.2374    
    487000   1.0065623      0.99373043     7.6215684     -2647.2807     -4158.634       1511.3533     -4158.634      -5479.9266     -298.80061      1620.0931      5794.0739    
    488000   1.0464723      1.0383581      7.3852381     -2620.8411     -4192.1193      1571.2782     -4192.1193     -5464.3581     -302.92665      1575.1655      5558.7632    
    489000   1.0237955      1.0127868      7.2425883     -2672.7095     -4209.9384      1537.2289     -4209.9384     -5451.3979     -303.48331      1544.9428      5348.9014    
    490000   1.0018012      1.0010783      7.2930745     -2640.8997     -4145.1043      1504.2045     -4145.1043     -5392.0279     -300.80164      1547.7252      5436.6277    
    491000   0.95277954     0.96686349     7.4973384     -2777.8296     -4208.4281      1430.5985     -4208.4281     -5525.9091     -298.94638      1616.4274      5525.9326    
    492000   0.98825342     0.97499288     7.3800419     -2640.0219     -4123.8844      1483.8625     -4123.8844     -5379.2075     -300.86482      1556.1879      5533.8274    
    493000   1.009872       1.0228161      7.6366351     -2712.7337     -4229.0565      1516.3228     -4229.0565     -5565.646      -300.53988      1637.1293      5745.3081    
    494000   0.98823186     0.99107303     7.2420396     -2733.1819     -4217.012       1483.8301     -4217.012      -5468.4626     -297.28496      1548.7355      5287.8213    
    495000   1.0134593      0.99041538     7.6418874     -2608.6562     -4130.3653      1521.7091     -4130.3653     -5445.9441     -298.78561      1614.3644      5855.2029    
    496000   1.0516732      1.0321045      7.4532835     -2607.2559     -4186.3432      1579.0873     -4186.3432     -5462.5518     -304.61705      1580.8256      5647.7128    
    497000   0.96140264     0.99587943     7.0319412     -2829.558      -4273.104       1443.5461     -4273.104      -5494.8715     -305.05276      1526.8203      4958.7484    
    498000   0.98835853     0.99283052     7.5241698     -2689.8102     -4173.8306      1484.0203     -4173.8306     -5473.6535     -299.1408       1598.9637      5643.6695    
    499000   0.98329006     1.0048294      7.6147497     -2666.8009     -4143.211       1476.41       -4143.211      -5453.3434     -302.36973      1612.5022      5767.0015    
    500000   0.95713937     0.95162493     7.1891285     -2772.8845     -4210.0293      1437.1448     -4210.0293     -5447.8455     -302.4631       1540.2794      5189.5163    
colvars: Saving collective variables state to "prod.colvars.state".
Loop time of 5738.49 on 1 procs for 500000 steps with 1002 atoms

Performance: 37640.545 tau/day, 87.131 timesteps/s
100.0% CPU use with 1 MPI tasks x 1 OpenMP threads

MPI task timing breakdown:
Section |  min time  |  avg time  |  max time  |%varavg| %total
---------------------------------------------------------------
Pair    | 26.194     | 26.194     | 26.194     |   0.0 |  0.46
Kspace  | 5611.3     | 5611.3     | 5611.3     |   0.0 | 97.78
Neigh   | 0.06457    | 0.06457    | 0.06457    |   0.0 |  0.00
Comm    | 54.62      | 54.62      | 54.62      |   0.0 |  0.95
Output  | 0.06663    | 0.06663    | 0.06663    |   0.0 |  0.00
Modify  | 41.443     | 41.443     | 41.443     |   0.0 |  0.72
Other   |            | 4.76       |            |       |  0.08

Nlocal:           1002 ave        1002 max        1002 min
Histogram: 1 0 0 0 0 0 0 0 0 0
Nghost:           7732 ave        7732 max        7732 min
Histogram: 1 0 0 0 0 0 0 0 0 0
Neighs:              0 ave           0 max           0 min
Histogram: 1 0 0 0 0 0 0 0 0 0

Total # of neighbors = 0
Ave neighs/atom = 0
Neighbor list builds = 47072
Dangerous builds = 0

undump         1
unfix          1
unfix          2
unfix          3
Total wall time: 3:30:34
