LAMMPS (3 Aug 2022)
#=======================================
# Sodium-Chloride in Stockmayer Fluid (water dipole)
#   Created by Chris Balzer (balzer@caltech.edu)
#   See README.md for description
#==================================

#======
# Parameters
#======
# Initialize the system set up
units		      lj
boundary	    p p p
atom_style	  hybrid dipole sphere
WARNING: Atom style hybrid defines both, per-type and per-atom masses; both must be set, but only per-atom masses will be used (../atom_vec_hybrid.cpp:133)
atom_modify   map yes

# Read in input data
read_data	    system.data
Reading data file ...
  orthogonal box = (0 0 0) to (10.3464 10.3464 10.3464)
  1 by 1 by 1 MPI processor grid
  reading atoms ...
  1002 atoms
  read_data CPU = 0.002 seconds

# Group atoms
group         solvent  type 1
1000 atoms in group solvent
group         ions     type 2 3
2 atoms in group ions
group         anion    type 2
1 atoms in group anion
group         cation   type 3
1 atoms in group cation
group2ndx     groups.ndx cation anion
Writing groups to index file groups.ndx:
 writing group cation...done
 writing group anion...done

# Set mass and diameter of spheres
set type      1 mass 1.0 # solvent
Setting atom values ...
  1000 settings made for mass
set type      2 mass 3.9411 # anion
Setting atom values ...
  1 settings made for mass
set type      3 mass 1.2767 # cation
Setting atom values ...
  1 settings made for mass
set type      1 diameter 1.0 # solvent
Setting atom values ...
  1000 settings made for diameter
set type      2 diameter 1.2067 # anion
Setting atom values ...
  1 settings made for diameter
set type      3 diameter 0.6533 # cation
Setting atom values ...
  1 settings made for diameter

# Set charge of ions
set type      2 charge -13.626 # anion
Setting atom values ...
  1 settings made for charge
set type      3 charge  13.626 # cation
Setting atom values ...
  1 settings made for charge

# Non-bonded interactions
pair_style	  lj/cut/dipole/long 1.12246204831 5.06974
pair_coeff	  1 1 1.0 1.0 1.122462 # solvent
pair_coeff	  2 2 1.0 1.2067 1.354438 # anion
pair_coeff	  3 3 1.0 0.6533 0.733342 # cation
kspace_style  ewald/disp 1e-4
pair_modify   shift yes mix geometric

# Set dipole
set group solvent dipole/random 4321 1.7494
Setting atom values ...
  1000 settings made for dipole/random

# Neighbor settings
neighbor	    0.4 bin
neigh_modify every 1 delay 0 one 10000

# Temperature computation
compute tempSph all  temp/sphere

#####################################################
# Minimization
minimize 0.0 1.0e-8 100000 100000

CITE-CITE-CITE-CITE-CITE-CITE-CITE-CITE-CITE-CITE-CITE-CITE-CITE

Your simulation uses code contributions which should be cited:

- GPU package (short-range, long-range and three-body potentials):

@Article{Brown11,
 author = {W. M. Brown, P. Wang, S. J. Plimpton, A. N. Tharrington},
 title = {Implementing Molecular Dynamics on Hybrid High Performance Computers - Short Range Forces},
 journal = {Comp.~Phys.~Comm.},
 year =    2011,
 volume =  182,
 pages =   {898--911}
}

@Article{Brown12,
 author = {W. M. Brown, A. Kohlmeyer, S. J. Plimpton, A. N. Tharrington},
 title = {Implementing Molecular Dynamics on Hybrid High Performance Computers - Particle-Particle Particle-Mesh},
 journal = {Comp.~Phys.~Comm.},
 year =    2012,
 volume =  183,
 pages =   {449--459}
}

@Article{Brown13,
 author = {W. M. Brown, Y. Masako},
 title = {Implementing Molecular Dynamics on Hybrid High Performance Computers – Three-Body Potentials},
 journal = {Comp.~Phys.~Comm.},
 year =    2013,
 volume =  184,
 pages =   {2785--2793}
}

@Article{Trung15,
 author = {T. D. Nguyen, S. J. Plimpton},
 title = {Accelerating dissipative particle dynamics simulations for soft matter systems},
 journal = {Comput.~Mater.~Sci.},
 year =    2015,
 volume =  100,
 pages =   {173--180}
}

@Article{Trung17,
 author = {T. D. Nguyen},
 title = {GPU-accelerated Tersoff potentials for massively parallel Molecular Dynamics simulations},
 journal = {Comp.~Phys.~Comm.},
 year =    2017,
 volume =  212,
 pages =   {113--122}
}

@Article{Nikolskiy19,
 author = {V. Nikolskiy, V. Stegailov},
 title = {GPU acceleration of four-site water models in LAMMPS},
 journal = {Proceeding of the International Conference on Parallel Computing (ParCo 2019), Prague, Czech Republic},
 year =    2019
}

CITE-CITE-CITE-CITE-CITE-CITE-CITE-CITE-CITE-CITE-CITE-CITE-CITE

EwaldDisp initialization ...
Generated 3 of 3 mixed pair_coeff terms from geometric mixing rule
  G vector = 0.55961375,   accuracy = 0.0001
Generated 3 of 3 mixed pair_coeff terms from geometric mixing rule
Neighbor list info ...
  update every 1 steps, delay 0 steps, check yes
  max neighbors/atom: 10000, page size: 100000
  master list distance cutoff = 5.46974
  ghost atom cutoff = 5.46974
  binsize = 2.73487, bins = 4 4 4
  0 neighbor lists, perpetual/occasional/extra = 0 0 0
  vectors: nbox = 7, nkvec = 709
Per MPI rank memory allocation (min/avg/max) = 18.02 | 18.02 | 18.02 Mbytes
   Step          Temp          E_pair         E_mol          TotEng         Press
         0   0              1.2172349      0              1.2172349      11.128454
      1042   0             -5.2979542      0             -5.2979542      2.6383933
Loop time of 25.3985 on 1 procs for 1042 steps with 1002 atoms

100.0% CPU use with 1 MPI tasks x 1 OpenMP threads

Minimization stats:
  Stopping criterion = linesearch alpha is zero
  Energy initial, next-to-last, final =
      1.21723490571729  -5.29795423940057  -5.29795423940057
  Force two-norm initial, final = 1097.5728 26.006834
  Force max component initial, final = 103.93378 13.323729
  Final line search alpha, max atom move = 0.0003174805 0.004230024
  Iterations, force evaluations = 1042 2237

MPI task timing breakdown:
Section |  min time  |  avg time  |  max time  |%varavg| %total
---------------------------------------------------------------
Pair    | 0.11123    | 0.11123    | 0.11123    |   0.0 |  0.44
Kspace  | 25.006     | 25.006     | 25.006     |   0.0 | 98.45
Neigh   | 0.00018848 | 0.00018848 | 0.00018848 |   0.0 |  0.00
Comm    | 0.23777    | 0.23777    | 0.23777    |   0.0 |  0.94
Output  | 0          | 0          | 0          |   0.0 |  0.00
Modify  | 7.4248e-05 | 7.4248e-05 | 7.4248e-05 |   0.0 |  0.00
Other   |            | 0.04324    |            |       |  0.17

Nlocal:           1002 ave        1002 max        1002 min
Histogram: 1 0 0 0 0 0 0 0 0 0
Nghost:           7698 ave        7698 max        7698 min
Histogram: 1 0 0 0 0 0 0 0 0 0
Neighs:              0 ave           0 max           0 min
Histogram: 1 0 0 0 0 0 0 0 0 0

Total # of neighbors = 0
Ave neighs/atom = 0
Neighbor list builds = 140
Dangerous builds = 0
reset_timestep 0

#####################################################
# Initialization (NVT Sphere with spring)

velocity       all create 1.0 4928459
fix		         1 all nve/sphere update dipole
fix            2 all langevin 1.0 1.0 1.0 214323 omega yes
fix            3 ions recenter 0.5 0.5 0.5 units fraction shift all
fix            4 cation spring couple anion 50.0 0.0 0.0 0.0 1.25

thermo		     1000
thermo_style	 custom step temp c_tempSph press etotal pe ke epair ecoul elong evdwl enthalpy
thermo_modify  norm no
dump	       	 1 all custom 10000 dump.dipoleInit id type x y z q mux muy muz

timestep	     0.005
run		         100000
EwaldDisp initialization ...
Generated 3 of 3 mixed pair_coeff terms from geometric mixing rule
  G vector = 0.55961375,   accuracy = 0.0001
Generated 3 of 3 mixed pair_coeff terms from geometric mixing rule
Per MPI rank memory allocation (min/avg/max) = 18.21 | 18.21 | 18.21 Mbytes
   Step          Temp        c_tempSph        Press          TotEng         PotEng         KinEng         E_pair         E_coul         E_long         E_vdwl        Enthalpy
         0   1              0.49975037     3.5421807     -3807.0501     -5308.5501      1501.5        -5308.5501     -5841.8128     -273.69499      806.95766      116.13234
      1000   1.014434       1.0015722      7.5561341     -2684.1371     -4207.3097      1523.1726     -4207.3097     -5514.3951     -303.37868      1610.4641      5684.745
      2000   1.0334781      1.0163401      7.7458259     -2588.2392     -4140.0066      1551.7674     -4140.0066     -5478.711      -303.42687      1642.1313      5990.7382
      3000   0.99654009     1.0116966      7.3863972     -2678.8637     -4175.1687      1496.3049     -4175.1687     -5444.4315     -301.82224      1571.085       5502.0244
      4000   0.97624293     0.97783487     7.6665269     -2623.8908     -4089.7196      1465.8288     -4089.7196     -5410.3443     -298.76632      1619.391       5867.258
      5000   1.020682       1.009244       7.4249322     -2656.3529     -4188.907       1532.5541     -4188.907      -5469.8259     -297.3353       1578.2542      5567.215
      6000   1.0283908      1.0163586      7.1920808     -2736.2623     -4280.3911      1544.1288     -4280.3911     -5523.8192     -303.22868      1546.6568      5229.4085
      7000   0.97701993     0.97762068     7.6285078     -2673.4877     -4140.4831      1466.9954     -4140.4831     -5460.994      -300.75682      1621.2677      5775.5528
      8000   1.0317715      1.0027106      7.0751828     -2763.5604     -4312.7653      1549.2049     -4312.7653     -5526.5209     -297.41602      1511.1716      5072.6387
      9000   1.0330934      1.0326637      7.6165537     -2638.076      -4189.2658      1551.1897     -4189.2658     -5508.7654     -295.57515      1615.0748      5797.7244
     10000   1.0049265      1.0071763      7.2897489     -2686.8909     -4195.788       1508.8972     -4195.788      -5434.2052     -298.32509      1536.7423      5386.9533
     11000   1.0484781      1.0299937      7.3800667     -2614.51       -4188.7999      1574.2898     -4188.7999     -5447.8474     -299.61136      1558.6589      5559.3666
     12000   1.0123256      0.98394173     7.6105035     -2657.0005     -4177.0074      1520.0069     -4177.0074     -5490.7218     -299.03732      1612.7516      5772.0991
     13000   1.0293686      1.0132989      7.3934757     -2663.2891     -4208.886       1545.5969     -4208.886      -5488.6073     -300.67691      1580.3981      5525.4389
     14000   1.0251058      0.99848039     7.0709473     -2675.8683     -4215.0646      1539.1964     -4215.0646     -5428.1938     -296.38667      1509.5158      5155.6397
     15000   0.99048776     0.9846592      7.2399205     -2722.2406     -4209.458       1487.2174     -4209.458      -5448.71       -299.22198      1538.474       5296.4156
     16000   1.041065       1.0173824      7.8395479     -2652.4053     -4215.5644      1563.1591     -4215.5644     -5568.8272     -299.88008      1653.1428      6030.375
     17000   1.0384796      1.0165441      7.5492493     -2602.6621     -4161.9391      1559.2771     -4161.9391     -5461.2997     -299.56152      1598.9222      5758.5947
     18000   0.97822528     0.98457764     7.5813864     -2698.826      -4167.6313      1468.8053     -4167.6313     -5485.6451     -303.1722       1621.1861      5698.0246
     19000   1.0259644      1.0233034      7.3991499     -2685.6439     -4226.1293      1540.4855     -4226.1293     -5503.4347     -301.97137      1579.2767      5509.3686
     20000   1.0160286      1.0234785      7.4673113     -2648.093      -4173.6599      1525.567      -4173.6599     -5459.4894     -300.75427      1586.5837      5622.4124
     21000   0.98594281     0.99797189     7.5638819     -2650.7085     -4131.1016      1480.3931     -4131.1016     -5435.4691     -297.38193      1601.7494      5726.7548
     22000   0.98036406     0.97417113     7.370588      -2691.482      -4163.4986      1472.0166     -4163.4986     -5442.7014     -299.08569      1578.2884      5471.8964
     23000   1.0060175      1.001398       7.4539072     -2705.9919     -4216.5273      1510.5353     -4216.5273     -5512.0013     -298.21323      1593.6873      5549.6676
     24000   0.98607072     1.0013018      7.4153326     -2675.047      -4155.6322      1480.5852     -4155.6322     -5433.5029     -302.97439      1580.8451      5537.8888
     25000   0.98368207     1.0107283      7.4378752     -2692.1442     -4169.1428      1476.9986     -4169.1428     -5455.9148     -298.04355      1584.8156      5545.7589
     26000   0.99352478     0.99565141     7.8757406     -2592.1724     -4083.9499      1491.7775     -4083.9499     -5438.5614     -303.07305      1657.6846      6130.6936
     27000   0.9628963      0.9765407      7.2065755     -2800.0554     -4245.8442      1445.7888     -4245.8442     -5500.935      -303.265        1558.3558      5181.6691
     28000   0.98387592     0.97664247     7.6908871     -2673.6514     -4150.9411      1477.2897     -4150.9411     -5494.5509     -301.4084       1645.0182      5844.478
     29000   1.0327002      1.0275544      7.4262255     -2733.5293     -4284.1286      1550.5993     -4284.1286     -5575.3157     -302.5638       1593.7509      5491.4711
     30000   0.9814474      0.97743        7.5431667     -2709.2229     -4182.8661      1473.6433     -4182.8661     -5492.7599     -297.57083      1607.4646      5645.2971
     31000   1.0055759      0.99505176     7.3873283     -2691.9023     -4201.7745      1509.8723     -4201.7745     -5487.687      -298.71268      1584.6252      5490.017
     32000   1.0099251      1.0118051      7.4763309     -2655.632      -4172.0345      1516.4025     -4172.0345     -5454.6632     -303.5846       1586.2133      5624.8631
     33000   1.0126851      1.0021138      7.3900823     -2683.5955     -4204.1422      1520.5467     -4204.1422     -5472.7869     -301.9702       1570.6149      5501.3741
     34000   0.98939563     0.99412941     7.2605199     -2714.2215     -4199.799       1485.5775     -4199.799      -5437.1584     -302.84006      1540.1995      5327.2498
     35000   1.0064628      0.99217867     7.490922      -2726.4884     -4237.6923      1511.2039     -4237.6923     -5531.894      -301.83687      1596.0386      5570.1673
     36000   1.0178303      1.0170755      7.3491204     -2702.2468     -4230.519       1528.2721     -4230.519      -5509.0361     -303.42119      1581.9383      5437.3549
     37000   1.0367441      1.0238376      7.2786284     -2668.4959     -4225.1672      1556.6712     -4225.1672     -5473.4635     -301.98075      1550.2771      5393.0316
     38000   1.0349083      1.0194563      7.5919436     -2624.4586     -4178.3735      1553.9148     -4178.3735     -5489.1316     -295.5378       1606.296       5784.0847
     39000   0.98468477     1.0032141      7.4076542     -2720.9114     -4199.4156      1478.5042     -4199.4156     -5489.3709     -296.8186       1586.7739      5483.52
     40000   0.9960722      0.98238733     7.5718417     -2641.7454     -4137.3478      1495.6024     -4137.3478     -5450.6294     -292.30502      1605.5866      5744.5339
     41000   0.98206718     0.99855217     7.5430223     -2643.5364     -4118.1103      1474.5739     -4118.1103     -5409.1596     -295.9558       1587.0051      5710.8236
     42000   0.96136832     0.98383509     7.2871392     -2795.1203     -4238.6148      1443.4945     -4238.6148     -5507.873      -302.38309      1571.6413      5275.8335
     43000   1.048724       1.0068788      7.3375028     -2617.2391     -4191.8982      1574.6591     -4191.8982     -5447.0362     -303.68151      1558.8195      5509.4954
     44000   0.96973886     0.98193697     7.8494081     -2620.4984     -4076.5613      1456.0629     -4076.5613     -5432.5705     -301.67873      1657.6879      6073.2026
     45000   1.0092757      1.0090324      7.3678869     -2638.5529     -4153.9804      1515.4275     -4153.9804     -5420.4736     -302.08445      1568.5776      5521.8338
     46000   1.0017204      0.98540531     7.2648395     -2697.3194     -4201.4026      1504.0831     -4201.4026     -5447.092      -304.11003      1549.7994      5348.9361
     47000   1.0164457      0.99587412     7.2968248     -2633.5156     -4159.7088      1526.1932     -4159.7088     -5409.8147     -298.68657      1548.7925      5448.1655
     48000   0.99365116     1.0021404      7.5957884     -2697.4948     -4189.462       1491.9672     -4189.462      -5503.0993     -304.15569      1617.793       5715.3069
     49000   1.0091145      1.0039842      7.3829134     -2715.5539     -4230.7392      1515.1854     -4230.7392     -5508.8278     -300.34787      1578.4364      5461.4758
     50000   0.9999852      0.99363187     7.2696651     -2759.6826     -4261.1603      1501.4778     -4261.1603     -5518.9247     -299.64629      1557.4107      5291.9176
     51000   1.00595        0.99416027     7.5132342     -2665.0411     -4175.4751      1510.4339     -4175.4751     -5464.9767     -296.8024       1586.3041      5656.3267
     52000   1.033635       1.0387156      7.4217808     -2607.3264     -4159.3293      1552.0029     -4159.3293     -5433.8871     -301.23326      1575.791       5612.7512
     53000   1.0266901      1.0189284      7.4024558     -2626.8777     -4168.4528      1541.5751     -4168.4528     -5442.9794     -303.41361      1577.9402      5571.7963
     54000   1.0486803      1.0182602      7.4761661     -2625.5273     -4200.1207      1574.5934     -4200.1207     -5484.9207     -301.88239      1586.6824      5654.7854
     55000   0.97767708     1.0008361      7.272078      -2765.8243     -4233.8064      1467.9821     -4233.8064     -5482.0906     -300.3115       1548.5957      5288.4483
     56000   0.96838895     0.9933983      7.3750737     -2798.0986     -4252.1346      1454.036      -4252.1346     -5536.4537     -301.53992      1585.859       5370.248
     57000   0.95157968     0.99551398     7.5560332     -2771.1063     -4199.9031      1428.7969     -4199.9031     -5536.0637     -300.8514       1637.012       5597.6642
     58000   1.0466436      1.0149233      7.5369233     -2578.9398     -4150.4752      1571.5353     -4150.4752     -5429.3624     -304.91437      1583.8016      5768.6652
     59000   1.01761        1.0219694      7.5915038     -2678.7916     -4206.733       1527.9415     -4206.733      -5519.1051     -301.3716       1613.7436      5729.2646
     60000   0.99277811     1.0274428      7.6683346     -2648.1975     -4138.8539      1490.6563     -4138.8539     -5468.3973     -295.589        1625.1324      5844.9535
     61000   1.0329304      1.0125938      7.4418643     -2645.3429     -4196.2879      1550.945      -4196.2879     -5468.5881     -300.65468      1572.9549      5596.9785
     62000   1.0026331      1.0083436      7.5932809     -2659.9229     -4165.3764      1505.4535     -4165.3764     -5487.2913     -300.29632      1622.2112      5750.1016
     63000   1.0063771      0.99349007     7.4976649     -2734.9442     -4246.0194      1511.0752     -4246.0194     -5535.9746     -303.38202      1593.3372      5569.1797
     64000   1.0101712      1.000791       7.4109256     -2674.9192     -4191.6913      1516.7721     -4191.6913     -5469.55       -299.64116      1577.4999      5533.1357
     65000   0.96714141     0.9694367      7.176612      -2770.279      -4222.4418      1452.1628     -4222.4418     -5452.3012     -302.30629      1532.1656      5178.2591
     66000   1.0133283      1.0068813      7.5304278     -2577.2175     -4098.73        1521.5125     -4098.73       -5385.9878     -296.06062      1583.3184      5763.1933
     67000   0.99512412     0.99355891     7.3425676     -2690.6472     -4184.8261      1494.1789     -4184.8261     -5454.2582     -297.11129      1566.5435      5441.6969
     68000   0.97667651     1.00254        7.4286944     -2718.3112     -4184.791       1466.4798     -4184.791      -5463.0356     -301.87814      1580.1227      5509.4237
     69000   1.0011475      1.0196729      7.1300268     -2797.8934     -4301.1164      1503.223      -4301.1164     -5530.8891     -298.83681      1528.6095      5099.0488
     70000   1.0430528      1.0159384      7.4994328     -2596.6162     -4162.76        1566.1438     -4162.76       -5438.3085     -299.8          1575.3486      5709.4657
     71000   0.98255778     0.97766576     7.5103775     -2728.1659     -4203.4764      1475.3105     -4203.4764     -5499.2465     -302.52274      1598.2928      5590.038
     72000   1.0045803      0.99043279     7.5483099     -2694.8142     -4203.1916      1508.3774     -4203.1916     -5507.3254     -299.95248      1604.0863      5665.4021
     73000   1.0407151      1.0331119      7.4879674     -2602.7144     -4165.3481      1562.6338     -4165.3481     -5453.6472     -298.07458      1586.3737      5690.6689
     74000   0.97881702     0.98539346     7.4542786     -2694.8937     -4164.5874      1469.6938     -4164.5874     -5447.2785     -297.83093      1580.522       5561.1772
     75000   0.98332776     1.0072159      7.4517675     -2752.1        -4228.5666      1476.4666     -4228.5666     -5533.07       -300.45278      1604.9562      5501.1897
     76000   0.99841682     1.0288205      7.351165      -2688.0123     -4187.1352      1499.1229     -4187.1352     -5445.3338     -303.42188      1561.6205      5453.8539
     77000   1.006044       1.0009754      7.6191247     -2701.6898     -4212.2649      1510.5751     -4212.2649     -5526.8533     -302.52499      1617.1134      5736.9583
     78000   0.99406472     1.0038763      7.5283204     -2683.4412     -4176.0293      1492.5882     -4176.0293     -5478.9408     -300.65058      1603.562       5654.6356
     79000   0.98244784     1.0158898      7.1703229     -2761.6679     -4236.8133      1475.1454     -4236.8133     -5473.7436     -296.7749       1533.7052      5179.9046
     80000   1.0058212      1.0236005      7.5591174     -2693.0327     -4203.2733      1510.2406     -4203.2733     -5500.6285     -301.14701      1598.5022      5679.1536
     81000   1.0101018      0.99854715     7.2236252     -2757.2802     -4273.948       1516.6678     -4273.948      -5529.3657     -300.4922       1555.91        5243.3279
     82000   0.97622309     0.97517629     7.2782064     -2751.7115     -4217.5104      1465.799      -4217.5104     -5482.0422     -295.29117      1559.823       5309.3486
     83000   1.0199383      1.0173512      7.3816755     -2708.7772     -4240.2146      1531.4373     -4240.2146     -5513.3824     -302.17679      1575.3446      5466.8812
     84000   0.97621737     0.98837376     7.1147117     -2837.7484     -4303.5387      1465.7904     -4303.5387     -5534.4094     -303.38921      1534.2599      5042.2313
     85000   1.0050652      1.0055873      7.4033665     -2727.3        -4236.4054      1509.1055     -4236.4054     -5515.7109     -299.50869      1578.8141      5472.3827
     86000   1.026796       1.0167024      7.0800093     -2674.6392     -4216.3734      1541.7342     -4216.3734     -5421.5432     -303.64476      1508.8146      5166.9055
     87000   0.9800098      1.0052649      7.3175704     -2789.2161     -4260.7008      1471.4847     -4260.7008     -5528.0118     -303.48963      1570.8007      5315.4421
     88000   1.010393       0.99109879     7.0587441     -2795.9702     -4313.0753      1517.1051     -4313.0753     -5535.223      -300.31002      1522.4577      5022.022
     89000   1.0098281      1.0115622      7.4789617     -2745.0826     -4261.3395      1516.2569     -4261.3395     -5559.9898     -300.96557      1599.6159      5538.3264
     90000   0.9584878      0.98341075     7.5225982     -2688.7645     -4127.9339      1439.1694     -4127.9339     -5432.5681     -301.75821      1606.3924      5642.9746
     91000   0.98235775     0.97919002     7.4665964     -2669.6759     -4144.6861      1475.0102     -4144.6861     -5420.2454     -302.77908      1578.3384      5600.0378
     92000   0.99229269     0.99212289     7.1789577     -2753.0905     -4243.018       1489.9275     -4243.018      -5478.2541     -301.0231       1536.2593      5198.0456
     93000   1.009654       1.0016369      7.6529949     -2672.7634     -4188.7588      1515.9954     -4188.7588     -5510.8681     -301.28178      1623.3911      5803.3981
     94000   1.0367861      1.0171158      7.7040152     -2603.0651     -4159.7994      1556.7343     -4159.7994     -5484.9337     -298.97232      1624.1066      5929.6044
     95000   0.99259155     0.98221039     7.1733529     -2784.6479     -4275.0241      1490.3762     -4275.0241     -5534.1018     -301.9359       1561.0136      5160.2806
     96000   1.038571       1.0184275      7.6963059     -2588.641      -4148.0553      1559.4143     -4148.0553     -5458.1454     -301.41143      1611.5016      5935.49
     97000   0.98958126     0.98382843     7.6044515     -2707.7282     -4193.5844      1485.8563     -4193.5844     -5511.2139     -303.65156      1621.2811      5714.6684
     98000   1.0022689      0.97692467     7.3435672     -2695.6156     -4200.5225      1504.9068     -4200.5225     -5469.1555     -298.18067      1566.8137      5437.8356
     99000   1.0285238      1.0192586      7.4904652     -2667.1728     -4211.5012      1544.3284     -4211.5012     -5502.0305     -300.28987      1590.8191      5628.977
    100000   1.0047621      1.0054866      7.4674923     -2710.2669     -4218.9172      1508.6503     -4218.9172     -5495.4539     -301.29212      1577.8288      5560.439
Loop time of 1141.49 on 1 procs for 100000 steps with 1002 atoms

Performance: 37845.383 tau/day, 87.605 timesteps/s
100.0% CPU use with 1 MPI tasks x 1 OpenMP threads

MPI task timing breakdown:
Section |  min time  |  avg time  |  max time  |%varavg| %total
---------------------------------------------------------------
Pair    | 5.0916     | 5.0916     | 5.0916     |   0.0 |  0.45
Kspace  | 1116.6     | 1116.6     | 1116.6     |   0.0 | 97.82
Neigh   | 0.014101   | 0.014101   | 0.014101   |   0.0 |  0.00
Comm    | 10.928     | 10.928     | 10.928     |   0.0 |  0.96
Output  | 0.013919   | 0.013919   | 0.013919   |   0.0 |  0.00
Modify  | 7.8671     | 7.8671     | 7.8671     |   0.0 |  0.69
Other   |            | 0.9732     |            |       |  0.09

Nlocal:           1002 ave        1002 max        1002 min
Histogram: 1 0 0 0 0 0 0 0 0 0
Nghost:           7649 ave        7649 max        7649 min
Histogram: 1 0 0 0 0 0 0 0 0 0
Neighs:              0 ave           0 max           0 min
Histogram: 1 0 0 0 0 0 0 0 0 0

Total # of neighbors = 0
Ave neighs/atom = 0
Neighbor list builds = 10151
Dangerous builds = 1

undump         1
unfix          1
unfix          2
unfix          3
unfix          4

#####################################################
# Equilibration (NVT Sphere with colvars)

fix		         1 all nve/sphere update dipole
fix            2 all langevin 1.0 1.0 1.0 214323 omega yes
fix            3 ions colvars input.equil.colvars output equil

thermo		     1000
thermo_style	 custom step temp c_tempSph press etotal pe ke epair ecoul elong evdwl enthalpy
WARNING: New thermo_style command, previous thermo_modify settings will be lost (../output.cpp:903)
thermo_modify  norm no
dump	       	 1 all custom 10000 dump.dipoleEquil id type x y z q mux muy muz

timestep	     0.005
run		         500000
EwaldDisp initialization ...
Generated 3 of 3 mixed pair_coeff terms from geometric mixing rule
  G vector = 0.55961375,   accuracy = 0.0001
Generated 3 of 3 mixed pair_coeff terms from geometric mixing rule
colvars: Creating proxy instance
colvars: ----------------------------------------------------------------------
colvars: Initializing the collective variables module, version 2022-05-24.
colvars: Please cite Fiorin et al, Mol Phys 2013:
colvars:   https://doi.org/10.1080/00268976.2013.813594
colvars: as well as all other papers listed below for individual features used.
colvars: This version was built with the C++11 standard or higher.
colvars: Using LAMMPS interface, version "2022-05-09".
colvars: ----------------------------------------------------------------------
colvars: Reading new configuration from file "input.equil.colvars":
colvars: # units = "" [default]
colvars: # indexFile = "groups.ndx"
colvars: The following index groups are currently defined:
colvars:   cation (1 atoms)
colvars:   anion (1 atoms)
colvars: # smp = on [default]
colvars: # colvarsTrajFrequency = 500
colvars: # colvarsRestartFrequency = 0 [default]
colvars: # scriptedColvarForces = off [default]
colvars: # scriptingAfterBiases = off [default]
colvars: ----------------------------------------------------------------------
colvars:   Initializing a new collective variable.
colvars:   # name = "dist"
colvars:   Initializing a new "distance" component.
colvars:     # name = "" [default]
colvars:     # componentCoeff = 1 [default]
colvars:     # componentExp = 1 [default]
colvars:     # period = 0 [default]
colvars:     # wrapAround = 0 [default]
colvars:     # forceNoPBC = off [default]
colvars:     # scalable = on [default]
colvars:       Initializing atom group "group1".
colvars:       # name = "" [default]
colvars:       # centerToOrigin = off [default]
colvars:       # centerToReference = off [default]
colvars:       # rotateToReference = off [default]
colvars:       # atomsOfGroup = "" [default]
colvars:       # indexGroup = "cation"
colvars:       # psfSegID =  [default]
colvars:       # atomsFile = "" [default]
colvars:       # dummyAtom = ( 0 , 0 , 0 ) [default]
colvars:       # enableFitGradients = on [default]
colvars:       # printAtomIDs = off [default]
colvars:       Atom group "group1" defined with 1 atoms requested.
colvars:       Initializing atom group "group2".
colvars:       # name = "" [default]
colvars:       # centerToOrigin = off [default]
colvars:       # centerToReference = off [default]
colvars:       # rotateToReference = off [default]
colvars:       # atomsOfGroup = "" [default]
colvars:       # indexGroup = "anion"
colvars:       # psfSegID =  [default]
colvars:       # atomsFile = "" [default]
colvars:       # dummyAtom = ( 0 , 0 , 0 ) [default]
colvars:       # enableFitGradients = on [default]
colvars:       # printAtomIDs = off [default]
colvars:       Atom group "group2" defined with 1 atoms requested.
colvars:     # oneSiteSystemForce = off [default]
colvars:     # oneSiteTotalForce = off [default]
colvars:   All components initialized.
colvars:   # timeStepFactor = 1 [default]
colvars:   # width = 0.01
colvars:   # lowerBoundary = 0.75
colvars:   # upperBoundary = 2
colvars:   # hardLowerBoundary = off [default]
colvars:   # hardUpperBoundary = off [default]
colvars:   # expandBoundaries = off [default]
colvars:   # extendedLagrangian = off [default]
colvars:   # outputValue = on [default]
colvars:   # outputVelocity = off [default]
colvars:   # outputTotalForce = off [default]
colvars:   # outputAppliedForce = off [default]
colvars:   # subtractAppliedForce = off [default]
colvars:   # runAve = off [default]
colvars:   # corrFunc = off [default]
colvars: ----------------------------------------------------------------------
colvars: Collective variables initialized, 1 in total.
colvars: ----------------------------------------------------------------------
colvars:   Initializing a new "abf" instance.
colvars:   # name = "abf_dist"
colvars:   # colvars = { dist }
colvars:   # stepZeroData = off [default]
colvars:   # outputEnergy = on
colvars:   # outputFreq = 1000
colvars:   # timeStepFactor = 1 [default]
colvars:   WARNING: ABF should not be run without a thermostat or at 0 Kelvin!
colvars:   # applyBias = on [default]
colvars:   # updateBias = on [default]
colvars:   # hideJacobian = off [default]
colvars:   Jacobian (geometric) forces will be included in reported free energy gradients.
colvars:   # fullSamples = 1000
colvars:   # inputPrefix =  [default]
colvars:   # historyFreq = 1000000
colvars:   # shared = off [default]
colvars:   # maxForce =  [default]
colvars:   # integrate = on [default]
colvars:   Finished ABF setup.
colvars: ----------------------------------------------------------------------
colvars:   Initializing a new "harmonicwalls" instance.
colvars:   # name = "wall_dist"
colvars:   # colvars = { dist }
colvars:   # stepZeroData = off [default]
colvars:   # outputEnergy = off [default]
colvars:   # outputFreq = 0 [default]
colvars:   # timeStepFactor = 1 [default]
colvars:   # writeTISamples = off [default]
colvars:   # writeTIPMF = off [default]
colvars:   # forceConstant = 1 [default]
colvars:   # targetForceConstant = -1 [default]
colvars:   # lowerWalls = { 0.7 }
colvars:   # upperWalls = { 2.05 }
colvars:   # lowerWallConstant = 1
colvars:   # upperWallConstant = 1
colvars:   The lower wall force constant for colvar "dist" will be rescaled to 10000 according to the specified width (0.01).
colvars:   The upper wall force constant for colvar "dist" will be rescaled to 10000 according to the specified width (0.01).
colvars: ----------------------------------------------------------------------
colvars: Collective variables biases initialized, 2 in total.
colvars: ----------------------------------------------------------------------
colvars: Collective variables module (re)initialized.
colvars: ----------------------------------------------------------------------
colvars: The restart output state file will be "rest.colvars.state".
colvars: The final output state file will be "equil.colvars.state".
colvars: Opening trajectory file "equil.colvars.traj".
colvars: Setting initial step number from LAMMPS: 100000
colvars: Re-initialized atom group for variable "dist":0/0. 1 atoms: total mass = 1.2767, total charge = 13.626.
colvars: Re-initialized atom group for variable "dist":0/1. 1 atoms: total mass = 3.9411, total charge = -13.626.
colvars:   Prepared sample and gradient buffers at step 100000.
Per MPI rank memory allocation (min/avg/max) = 18.22 | 18.22 | 18.22 Mbytes
   Step          Temp        c_tempSph        Press          TotEng         PotEng         KinEng         E_pair         E_coul         E_long         E_vdwl        Enthalpy
    100000   1.0047621      1.0054866      7.4674924     -2710.2669     -4218.9172      1508.6503     -4218.9172     -5495.4539     -301.29212      1577.8288      5560.4391
    101000   1.0081         0.99532685     7.4586976     -2643.6855     -4157.3476      1513.6621     -4157.3476     -5449.4559     -297.01873      1589.1271      5617.2797
    102000   1.0038033      1.0088841      7.3047289     -2705.6737     -4212.8844      1507.2107     -4212.8844     -5469.566      -304.32688      1561.0085      5384.7617
    103000   1.0179074      1.0164716      7.2438948     -2721.6428     -4250.0308      1528.388      -4250.0308     -5490.4776     -301.49203      1541.9389      5301.4151
    104000   0.97554523     0.98571644     7.821481      -2725.4102     -4190.1914      1464.7812     -4190.1914     -5554.8329     -299.25721      1663.8987      5937.36
    105000   0.99785712     0.98463339     7.4366803     -2720.6526     -4218.9351      1498.2825     -4218.9351     -5508.6657     -300.78519      1590.5158      5515.9271
    106000   0.98548217     0.98811653     7.4082895     -2715.4553     -4195.1568      1479.7015     -4195.1568     -5483.6874     -299.84953      1588.3801      5489.6799
    107000   0.99822785     0.99860176     7.4188202     -2739.1275     -4237.9666      1498.8391     -4237.9666     -5523.3279     -296.87402      1582.2352      5477.671
    108000   1.0295304      1.0052679      7.5570189     -2667.0831     -4212.923       1545.8399     -4212.923      -5518.7239     -300.82004      1606.6209      5702.779
    109000   0.98944006     0.98701982     7.3579467     -2629.9751     -4115.6194      1485.6443     -4115.6194     -5348.5541     -302.36552      1535.3002      5519.4023
    110000   1.0091397      1.0098599      7.2435107     -2681.4702     -4196.6934      1515.2232     -4196.6934     -5433.7359     -301.35344      1538.396       5341.1623
    111000   1.0108293      0.99798637     7.0591224     -2689.6005     -4207.3606      1517.7602     -4207.3606     -5405.682      -301.05838      1499.3797      5128.8106
    112000   0.99892089     0.99374269     7.7967444     -2637.1039     -4136.9837      1499.8797     -4136.9837     -5494.0678     -298.2135       1655.2977      5998.2688
    113000   0.97561385     1.011015       7.4384676     -2751.1505     -4216.0346      1464.8842     -4216.0346     -5514.8713     -303.66543      1602.5021      5487.4088
    114000   0.99567088     0.99350357     7.2275492     -2710.3672     -4205.367       1494.9998     -4205.367      -5450.4795     -294.29226      1539.4048      5294.587
    115000   1.0050629      1.0098959      7.3697235     -2627.7344     -4136.8364      1509.102      -4136.8364     -5393.5596     -301.33967      1558.0629      5534.6865
    116000   0.99774116     0.99332747     7.3360498     -2785.1918     -4283.3002      1498.1084     -4283.3002     -5561.7396     -300.95081      1579.3902      5339.9335
    117000   1.0020366      1.0259032      7.2920153     -2644.789      -4149.3469      1504.5579     -4149.3469     -5381.0167     -304.05339      1535.7232      5431.5654
    118000   1.0195851      1.0154023      7.5621802     -2698.1224     -4229.0294      1530.907      -4229.0294     -5545.7258     -299.982        1616.6784      5677.4561
    119000   1.020462       1.012322       7.1564032     -2669.914      -4202.1377      1532.2237     -4202.1377     -5406.9462     -301.85566      1506.6642      5256.2416
    120000   1.0062786      1.0259568      7.1671771     -2739.2938     -4250.2211      1510.9273     -4250.2211     -5475.4411     -299.25146      1524.4715      5198.7946
    121000   0.97353928     0.98299055     7.4004807     -2678.1089     -4139.8781      1461.7692     -4139.8781     -5396.6498     -299.1773       1555.949       5518.3776
    122000   1.027886       1.0178513      7.2132353     -2676.3516     -4219.7223      1543.3708     -4219.7223     -5450.4294     -301.90826      1532.6153      5312.7491
    123000   1.0345934      1.0219463      7.3702798     -2613.5593     -4167.0013      1553.4419     -4167.0013     -5419.5373     -300.73232      1553.2684      5549.4777
    124000   1.0025775      1.0102949      7.2989576     -2691.7381     -4197.1082      1505.3702     -4197.1082     -5456.8302     -301.69594      1561.4179      5392.3054
    125000   0.98935578     1.0054999      7.2795838     -2732.3508     -4217.8685      1485.5177     -4217.8685     -5486.8771     -301.31045      1570.319       5330.2349
    126000   1.0359896      1.0252464      7.1948287     -2657.1992     -4212.7376      1555.5384     -4212.7376     -5425.9735     -297.65822      1510.8941      5311.5151
    127000   1.0154627      1.005151       7.6325081     -2634.6607     -4159.3779      1524.7172     -4159.3779     -5477.3319     -294.78486      1612.7389      5818.8103
    128000   1.0062669      1.0166151      7.5404373     -2709.9667     -4220.8765      1510.9098     -4220.8765     -5522.6975     -303.90199      1605.723       5641.5303
    129000   1.0022705      0.98506278     7.3911255     -2711.2919     -4216.2011      1504.9092     -4216.2011     -5479.5769     -305.5676       1568.9434      5474.8331
    130000   1.0231063      1.0382287      7.5211049     -2647.2506     -4183.4447      1536.1941     -4183.4447     -5472.7568     -300.62608      1589.9382      5682.8346
    131000   0.99149381     1.0043286      7.2774897     -2730.3537     -4219.0817      1488.728      -4219.0817     -5480.0056     -295.82752      1556.7515      5329.9126
    132000   0.99090947     1.0069512      7.5526042     -2632.7376     -4120.5881      1487.8506     -4120.5881     -5406.8398     -302.36058      1588.6123      5732.235
    133000   1.0349733      1.0196067      7.7881377     -2669.1347     -4223.1472      1554.0124     -4223.1472     -5572.5107     -298.67546      1648.039       5956.7056
    134000   0.97324647     0.98893036     7.1389121     -2755.2757     -4216.6053      1461.3296     -4216.6053     -5447.4424     -303.15394      1533.991       5151.5074
    135000   0.98501915     0.99000566     7.1290393     -2693.8835     -4172.8898      1479.0063     -4172.8898     -5396.818      -299.56417      1523.4924      5201.9649
    136000   1.051934       1.02099        7.2607323     -2681.2862     -4260.7651      1579.4788     -4260.7651     -5522.5979     -294.32036      1556.1532      5360.4203
    137000   1.0031276      1.0320471      7.5422016     -2660.6458     -4166.8418      1506.196      -4166.8418     -5465.7442     -299.05511      1597.9575      5692.8052
    138000   0.97604911     0.99076555     7.2566874     -2711.1535     -4176.6912      1465.5377     -4176.6912     -5431.9857     -302.12444      1557.4189      5326.073
    139000   0.97948841     0.97958585     7.5772309     -2622.3582     -4093.0601      1470.7019     -4093.0601     -5398.9365     -300.29417      1606.1706      5769.8899
    140000   1.0095349      1.0033723      7.3914022     -2729.5478     -4245.3645      1515.8167     -4245.3645     -5518.3589     -302.6428       1575.6373      5456.8837
    141000   1.040541       1.0548873      7.7715922     -2586.2391     -4148.6114      1562.3723     -4148.6114     -5489.0771     -301.26486      1641.7306      6021.276
    142000   1.0059251      0.98573229     7.4404257     -2739.2534     -4249.6499      1510.3965     -4249.6499     -5526.89       -301.89015      1579.1302      5501.4745
    143000   1.0355455      1.0379796      7.4859469     -2628.2401     -4183.1116      1554.8715     -4183.1116     -5467.4924     -302.16422      1586.545       5662.9054
    144000   0.99791763     1.0223103      7.5598738     -2717.4446     -4215.818       1498.3733     -4215.818      -5532.3551     -304.70868      1621.2459      5655.5794
    145000   0.97952679     0.9942078      7.3210115     -2717.2338     -4187.9933      1470.7595     -4187.9933     -5454.3673     -304.36528      1570.7393      5391.2355
    146000   0.98531774     0.9871562      7.556768      -2730.5903     -4210.0449      1479.4546     -4210.0449     -5517.9994     -299.6475       1607.6021      5638.9939
    147000   0.96893341     0.97640477     7.5064807     -2718.4703     -4173.3238      1454.8535     -4173.3238     -5495.7539     -301.02677      1623.4569      5595.4176
    148000   0.99184819     0.99935961     7.3922598     -2641.1769     -4130.437       1489.2601     -4130.437      -5394.0193     -297.75036      1561.3327      5546.2044
    149000   1.0321123      1.0184365      7.3538028     -2715.0186     -4264.7352      1549.7166     -4264.7352     -5528.7838     -300.88371      1564.9323      5429.7691
    150000   0.99959719     1.0056275      7.2805971     -2738.1352     -4239.0303      1500.8952     -4239.0303     -5496.7819     -300.43865      1558.1902      5325.5729
    151000   1.0289781      1.0379437      7.4302244     -2606.1586     -4151.1692      1545.0106     -4151.1692     -5417.1209     -303.57887      1569.5306      5623.2707
    152000   1.0322244      1.0051542      7.2859862     -2743.5938     -4293.4787      1549.8849     -4293.4787     -5548.0572     -301.08618      1555.6647      5326.083
    153000   0.99290574     0.98777314     7.4111414     -2715.2315     -4206.0795      1490.848      -4206.0795     -5488.2633     -298.69228      1580.8761      5493.0623
    154000   1.0232431      1.002549       7.4832487     -2576.5179     -4112.9175      1536.3995     -4112.9175     -5380.4272     -298.98254      1566.4923      5711.6392
    155000   0.99957231     0.993225       7.3998062     -2706.7569     -4207.6147      1500.8578     -4207.6147     -5492.4998     -297.85312      1582.7382      5488.9825
    156000   1.0106917      1.0033521      7.626077      -2707.9031     -4225.4568      1517.5537     -4225.4568     -5545.5586     -295.38229      1615.4841      5738.4451
    157000   1.0366162      1.007748       7.4845725     -2668.4892     -4224.9684      1556.4792     -4224.9684     -5512.2309     -299.67956      1586.942       5621.134
    158000   1.003129       0.9903599      7.0851563     -2745.8818     -4252.0801      1506.1983     -4252.0801     -5460.4237     -298.43359      1506.7772      5101.3636
    159000   0.9811921      0.96145629     7.4034941     -2694.2193     -4167.4793      1473.2599     -4167.4793     -5437.6913     -304.61784      1574.8299      5505.6046
    160000   1.0122234      1.0216257      7.3429913     -2659.058      -4178.9115      1519.8535     -4178.9115     -5430.3083     -304.24062      1555.6374      5473.7554
    161000   1.0101734      1.0012881      7.7124336     -2708.487      -4225.2625      1516.7754     -4225.2625     -5570.0334     -303.23353      1648.0045      5833.5064
    162000   1.0253127      1.0072906      7.427764      -2620.5017     -4160.0086      1539.507      -4160.0086     -5435.2005     -301.2312       1576.423       5606.2027
    163000   1.0053971      0.98883397     7.5264044     -2642.8561     -4152.4599      1509.6038     -4152.4599     -5448.4588     -298.76316      1594.7621      5693.0985
    164000   0.99929139     0.99094944     7.211373      -2759.3112     -4259.7472      1500.436      -4259.7472     -5522.4441     -298.61261      1561.3095      5227.7269
    165000   1.0036357      0.99897649     7.3843135     -2756.3151     -4263.2742      1506.9591     -4263.2742     -5547.0217     -304.43829      1588.1858      5422.2651
    166000   0.96124119     0.99834598     7.5638437     -2666.6426     -4109.9463      1443.3037     -4109.9463     -5409.3168     -305.34439      1604.7149      5710.7783
    167000   1.0315616      0.99987255     7.4728765     -2609.3581     -4158.2478      1548.8897     -4158.2478     -5431.7952     -303.26751      1576.8148      5667.3111
    168000   1.0532542      1.0317863      7.253664      -2664.8294     -4246.2906      1581.4612     -4246.2906     -5476.147      -302.1331       1531.9895      5369.0485
    169000   0.96663063     0.96793258     7.1781291     -2756.7333     -4208.1292      1451.3959     -4208.1292     -5440.6598     -299.31489      1531.8455      5193.4851
    170000   0.99373653     1.0068456      7.2225193     -2774.7645     -4266.8599      1492.0954     -4266.8599     -5517.4805     -303.0936       1553.7142      5224.6187
    171000   1.0184668      0.99907106     7.6457399     -2626.5317     -4155.7596      1529.2279     -4155.7596     -5475.9402     -298.91532      1619.0959      5841.5943
    172000   0.93972272     0.94358727     7.073797      -2809.4794     -4220.4731      1410.9937     -4220.4731     -5442.5183     -299.12104      1521.1663      5025.1848
    173000   1.02031        1.0217667      7.4937604     -2730.5396     -4262.5351      1531.9955     -4262.5351     -5556.7186     -301.77303      1595.9566      5569.2598
    174000   1.0324569      0.99833288     7.5244969     -2653.5755     -4203.8096      1550.234      -4203.8096     -5510.0179     -301.67734      1607.8857      5680.2665
    175000   0.99489406     1.0027129      7.4567129     -2723.6717     -4217.5051      1493.8334     -4217.5051     -5505.4257     -299.68743      1587.608       5535.0954
    176000   1.0218996      1.0331824      7.4081116     -2620.1174     -4154.4996      1534.3822     -4154.4996     -5419.7248     -299.869        1565.0941      5584.8208
    177000   1.0640957      1.0235866      7.4816764     -2627.0407     -4224.7804      1597.7398     -4224.7804     -5506.341      -304.51125      1586.0718      5659.3749
    178000   1.0044455      0.99588374     6.9689806     -2797.222      -4305.3969      1508.1749     -4305.3969     -5508.9861     -301.30131      1504.8905      4921.3515
    179000   0.96822313     0.98301192     7.3617068     -2719.6765     -4173.4636      1453.787      -4173.4636     -5440.0756     -302.53262      1569.1446      5433.8654
    180000   1.0028632      1.0123967      7.2298206     -2660.1809     -4165.98        1505.7991     -4165.98       -5416.2541     -299.62694      1549.901       5347.289
    181000   0.97623083     0.98327769     7.5765826     -2638.0699     -4103.8805      1465.8106     -4103.8805     -5405.2507     -300.85512      1602.2252      5753.4601
    182000   1.029188       1.0229113      6.982271      -2674.4114     -4219.7372      1545.3257     -4219.7372     -5400.3783     -298.79415      1479.4353      5058.8821
    183000   1.0174321      0.99395332     7.5461102     -2555.2094     -4082.8837      1527.6743     -4082.8837     -5367.3387     -295.53351      1579.9885      5802.5706
    184000   0.9802115      0.97495129     7.4501662     -2722.9054     -4194.693       1471.7876     -4194.693      -5483.5647     -301.57591      1590.4476      5528.6107
    185000   1.0445873      1.0139018      7.5105843     -2616.8116     -4185.2594      1568.4479     -4185.2594     -5470.2869     -301.24416      1586.2717      5701.6214
    186000   1.0163897      1.0089663      7.2512351     -2699.9545     -4226.0636      1526.1091     -4226.0636     -5464.6713     -298.13448      1536.7422      5331.2333
    187000   1.0370219      1.0340463      7.5404412     -2674.113      -4231.2013      1557.0884     -4231.2013     -5530.2092     -300.65111      1599.659       5677.3883
    188000   0.98303751     0.9889309      7.6332434     -2621.6728     -4097.7036      1476.0308     -4097.7036     -5396.2701     -298.22403      1596.7905      5832.6125
    189000   0.98575967     1.0015185      7.3066547     -2650.932      -4131.0501      1480.1181     -4131.0501     -5375.831      -304.16741      1548.9482      5441.6364
    190000   1.0626613      1.0388202      7.3308159     -2655.2166     -4250.8026      1595.5859     -4250.8026     -5518.4631     -300.54003      1568.2005      5464.1117
    191000   1.0106184      1.0169123      7.8664951     -2603.4426     -4120.8861      1517.4435     -4120.8861     -5487.1878     -300.75575      1667.0575      6109.1834
    192000   0.94442635     0.98078838     7.2578265     -2751.6802     -4169.7363      1418.0562     -4169.7363     -5425.6071     -297.50182      1553.3726      5286.808
    193000   0.93844417     0.97055104     7.2760678     -2764.3428     -4173.4167      1409.0739     -4173.4167     -5422.6445     -295.95278      1545.1805      5294.3487
    194000   1.0308421      1.005811       7.3358769     -2654.0639     -4201.8734      1547.8095     -4201.8734     -5472.082      -299.09593      1569.3045      5470.8698
    195000   1.0054917      1.0017533      7.3954858     -2678.189      -4187.9347      1509.7458     -4187.9347     -5455.392      -303.32274      1570.78        5512.7653
    196000   1.00373        0.99405199     7.7852845     -2641.279      -4148.3797      1507.1006     -4148.3797     -5496.862      -300.6322       1649.1146      5981.4012
    197000   0.98039285     1.0028769      7.2743194     -2747.1532     -4219.213       1472.0599     -4219.213      -5477.1392     -302.42242      1560.3486      5309.6019
    198000   0.98425388     0.97599896     7.3564739     -2693.3044     -4171.1616      1477.8572     -4171.1616     -5431.5885     -300.94972      1561.3766      5454.4418
    199000   0.97088969     0.99735795     7.1173791     -2735.8921     -4193.683       1457.7909     -4193.683      -5430.5838     -299.97904      1536.8799      5147.0419
    200000   0.99089808     0.99502053     7.6421588     -2659.7417     -4147.5751      1487.8335     -4147.5751     -5462.5353     -302.03368      1616.9939      5804.4181
    201000   1.0056354      0.98560199     7.4405598     -2673.3815     -4183.343       1509.9615     -4183.343      -5472.4033     -301.38792      1590.4482      5567.495
    202000   1.0302773      1.0065436      7.5879239     -2600.6941     -4147.6555      1546.9614     -4147.6555     -5441.783      -300.84901      1594.9765      5803.3971
    203000   1.0463202      1.0352062      7.787346      -2593.8681     -4164.9178      1571.0497     -4164.9178     -5503.5897     -303.62959      1642.3015      6031.0953
    204000   1.0676483      1.036711       7.6969        -2526.3732     -4129.4471      1603.0739     -4129.4471     -5443.5296     -302.87802      1616.9605      5998.4157
    205000   1.0252722      1.0178747      7.3527328     -2720.8427     -4260.2889      1539.4462     -4260.2889     -5524.0217     -301.40921      1565.142       5422.76
    206000   0.98055958     0.99188369     7.3190847     -2687.7552     -4160.0654      1472.3102     -4160.0654     -5424.2381     -303.78513      1567.9578      5418.5802
    207000   1.0030935      1.005676       7.4034121     -2679.7558     -4185.9007      1506.1449     -4185.9007     -5482.2641     -296.16319      1592.5266      5519.9773
    208000   1.0490275      1.0194554      7.6900958     -2556.2326     -4131.3474      1575.1148     -4131.3474     -5456.8969     -297.93883      1623.4884      5961.0203
    209000   0.98178979     0.98610563     7.4614115     -2673.8373     -4147.9947      1474.1574     -4147.9947     -5462.152      -300.4589       1614.6162      5590.1337
    210000   0.99809112     0.98100442     7.7297574     -2649.1566     -4147.7904      1498.6338     -4147.7904     -5488.3957     -300.13221      1640.7374      5912.0239
    211000   0.99965867     1.007642       7.5194313     -2665.1298     -4166.1172      1500.9875     -4166.1172     -5455.9327     -302.99283      1592.8083      5663.1018
    212000   0.98370806     0.98727615     7.3518823     -2744.2191     -4221.2567      1477.0376     -4221.2567     -5496.5926     -302.34387      1577.6798      5398.4417
    213000   1.036344       1.0062604      7.4388228     -2669.4213     -4225.4918      1556.0705     -4225.4918     -5509.2978     -296.91949      1580.7255      5569.5313
    214000   1.0382506      1.0123021      7.1091363     -2678.6264     -4237.5597      1558.9333     -4237.5597     -5440.8107     -300.16172      1503.4127      5195.1783
    215000   1.050857       1.0168025      8.0088222     -2552.4297     -4130.2915      1577.8618     -4130.2915     -5518.7708     -301.767        1690.2463      6317.8323
    216000   1.009906       0.99466081     7.3593007     -2650.0245     -4166.3983      1516.3738     -4166.3983     -5439.8261     -295.15658      1568.5844      5500.8526
    217000   0.98095199     0.97671759     7.5908842     -2670.4081     -4143.3075      1472.8994     -4143.3075     -5458.7133     -300.27155      1615.6773      5736.9618
    218000   0.9553557      0.94476186     7.3827648     -2747.2008     -4181.6674      1434.4666     -4181.6674     -5454.1236     -299.93379      1572.39        5429.6641
    219000   1.0559851      1.028318       7.5506598     -2642.0542     -4227.6159      1585.5617     -4227.6159     -5532.1016     -303.22491      1607.7106      5720.7648
    220000   0.97542006     0.97502849     7.4050862     -2708.5211     -4173.1143      1464.5932     -4173.1143     -5454.1987     -302.27505      1583.3594      5493.0662
    221000   0.98671172     0.99349132     7.4112786     -2688.7837     -4170.3314      1481.5476     -4170.3314     -5446.8095     -303.05846      1579.5366      5519.662
    222000   1.0072078      0.9959395      7.4032473     -2653.5043     -4165.8267      1512.3225     -4165.8267     -5425.9624     -298.00783      1558.1435      5546.0463
    223000   1.0278898      1.0124286      7.122898      -2683.6254     -4227.0019      1543.3766     -4227.0019     -5460.8558     -293.09882      1526.9527      5205.4211
    224000   0.9517914      0.95009001     7.6649796     -2739.2947     -4168.4095      1429.1148     -4168.4095     -5518.5658     -297.65452      1647.8109      5750.1405
    225000   0.97132295     0.97727449     7.1911881     -2717.2981     -4175.7396      1458.4414     -4175.7396     -5419.5498     -299.90036      1543.7106      5247.3838
    226000   0.9778616      0.98949365     6.9486819     -2770.3097     -4238.5689      1468.2592     -4238.5689     -5430.7371     -301.43628      1493.6045      4925.7818
    227000   0.9897829      0.98364115     7.3426141     -2764.8019     -4250.9609      1486.159      -4250.9609     -5503.7357     -304.16125      1556.936       5367.5938
    228000   1.0273183      1.013949       7.2243194     -2650.9        -4193.4185      1542.5184     -4193.4185     -5427.378      -303.1111       1537.0706      5350.477
    229000   0.98806836     0.98379186     7.381598      -2687.6249     -4171.2095      1483.5846     -4171.2095     -5441.3806     -302.63257      1572.8036      5487.9478
    230000   1.0041474      1.0100922      7.3232759     -2739.6309     -4247.3583      1507.7274     -4247.3583     -5519.511      -297.40387      1569.5565      5371.3464
    231000   0.99416238     0.98860935     7.9701151     -2682.8477     -4175.5826      1492.7348     -4175.5826     -5564.178      -300.85433      1689.4498      6144.5437
    232000   1.0312754      1.0121223      7.4078846     -2735.5913     -4284.0514      1548.4601     -4284.0514     -5570.5002     -302.06799      1588.5169      5469.0955
    233000   1.0504468      1.0253627      7.4471704     -2644.7173     -4221.9631      1577.2458     -4221.9631     -5499.4854     -301.08485      1578.6071      5603.4808
    234000   1.0285317      1.0055861      7.3539282     -2617.4228     -4161.7632      1544.3404     -4161.7632     -5433.1413     -297.23305      1568.6111      5527.5039
    235000   0.97676909     0.99302325     7.1151882     -2779.9654     -4246.5842      1466.6188     -4246.5842     -5469.3025     -300.82994      1523.5482      5100.5421
    236000   1.0329677      1.0312488      7.3901348     -2697.3825     -4248.3836      1551.0011     -4248.3836     -5514.1285     -299.05505      1564.7999      5487.6452
    237000   1.0133502      1.0193578      7.293935      -2681.2665     -4202.8118      1521.5453     -4202.8118     -5461.795      -295.87456      1554.8577      5397.214
    238000   1.0128623      1.0147762      7.6104359     -2660.4084     -4181.221       1520.8127     -4181.221      -5488.0084     -301.59108      1608.3785      5768.6163
    239000   1.041396       1.0374457      7.6240121     -2617.8255     -4181.4816      1563.6561     -4181.4816     -5504.0504     -299.82769      1622.3965      5826.2356
    240000   1.0281651      1.0086863      7.5031675     -2676.9975     -4220.7874      1543.7899     -4220.7874     -5518.3947     -304.16073      1601.768       5633.2209
    241000   1.035517       1.0245644      7.1245609     -2636.5602     -4191.389       1554.8288     -4191.389      -5409.2679     -298.84139      1516.7203      5254.3281
    242000   1.0079026      0.99457683     7.2321122     -2785.5894     -4298.9551      1513.3658     -4298.9551     -5552.7301     -301.20539      1554.9803      5224.4186
    243000   0.95520624     0.96899064     7.5088691     -2750.1201     -4184.3622      1434.2422     -4184.3622     -5493.6004     -298.82066      1608.0589      5566.4132
    244000   0.96839618     0.98359613     7.0787124     -2757.232      -4211.2788      1454.0469     -4211.2788     -5419.4063     -304.54997      1512.6775      5082.8763
    245000   1.0242013      1.0349132      7.5583555     -2643.5828     -4181.421       1537.8382     -4181.421      -5484.5403     -301.31167      1604.431       5727.7597
    246000   1.0043818      0.99640289     7.5091264     -2652.1553     -4160.2345      1508.0792     -4160.2345     -5457.1528     -299.21393      1596.1323      5664.6629
    247000   0.97393023     1.0028263      7.0287299     -2785.4114     -4247.7677      1462.3562     -4247.7677     -5456.0345     -299.20311      1507.47        4999.3382
    248000   0.96198784     0.97937758     7.07061       -2768.2005     -4212.6253      1444.4247     -4212.6253     -5431.1951     -303.11754      1521.6874      5062.9339
    249000   0.99182524     1.0005002      7.0743669     -2781.6469     -4270.8725      1489.2256     -4270.8725     -5505.3502     -300.76754      1535.2452      5053.6484
    250000   1.0305466      1.0189328      7.44539       -2672.0581     -4219.4239      1547.3657     -4219.4239     -5500.3553     -299.27231      1580.2037      5574.1681
    251000   0.98146671     0.985252       7.1028422     -2773.6474     -4247.3197      1473.6723     -4247.3197     -5461.0077     -305.15009      1518.8381      5093.1862
    252000   0.99368247     0.98878187     7.2460968     -2757.8641     -4249.8784      1492.0142     -4249.8784     -5502.4238     -302.35762      1554.903       5267.6326
    253000   1.0021365      0.99032112     7.272455      -2692.7787     -4197.4867      1504.708      -4197.4867     -5456.0361     -298.78787      1557.3372      5361.9114
    254000   0.98701607     0.9885039      7.0922894     -2757.1649     -4239.1696      1482.0046     -4239.1696     -5461.3578     -297.32265      1519.5109      5097.9807
    255000   1.0228199      0.99638283     7.44334       -2618.2575     -4154.0217      1535.7641     -4154.0217     -5443.0851     -299.07219      1588.1356      5625.6982
    256000   1.0004641      1.0099711      7.1847451     -2704.3987     -4206.5956      1502.1968     -4206.5956     -5449.5228     -299.61752      1542.5447      5253.1473
    257000   1.0205316      1.0303031      7.5750276     -2622.2062     -4154.5345      1532.3283     -4154.5345     -5449.2689     -304.66431      1599.3987      5767.6015
    258000   1.0054282      1.0036112      7.7004167     -2643.5861     -4153.2365      1509.6504     -4153.2365     -5479.9907     -301.87092      1628.6251      5885.0979
    259000   1.0255562      1.0020715      7.5996696     -2646.275      -4186.1476      1539.8726     -4186.1476     -5505.9954     -299.26766      1619.1155      5770.8253
    260000   1.0098907      1.0127242      7.7599849     -2559.5774     -4075.9283      1516.3509     -4075.9283     -5412.1847     -300.70143      1636.9578      6035.082
    261000   1.0130554      1.0029025      7.5825321     -2686.8276     -4207.9303      1521.1027     -4207.9303     -5522.3091     -302.59756      1616.9763      5711.2919
    262000   1.005254       1.0150016      7.2156181     -2710.2545     -4219.6433      1509.3888     -4219.6433     -5459.6178     -298.75555      1538.73        5281.4853
    263000   1.0100657      0.98783384     7.29645       -2699.2982     -4215.9119      1516.6137     -4215.9119     -5475.6599     -299.70574      1559.4537      5381.9678
    264000   0.99457401     1.0096342      7.2305699     -2665.436      -4158.7888      1493.3529     -4158.7888     -5402.9653     -301.28748      1545.4639      5342.8638
    265000   1.0316097      0.99812263     7.4173774     -2655.486      -4204.4479      1548.9619     -4204.4479     -5480.1058     -300.55415      1576.212       5559.7145
    266000   0.9888384      0.99813381     7.288542      -2687.7406     -4172.4815      1484.7409     -4172.4815     -5442.5575     -304.04581      1574.1218      5384.7668
    267000   1.0449786      0.99818316     7.4076819     -2584.2843     -4153.3197      1569.0354     -4153.3197     -5420.9454     -297.6104       1565.2362      5620.1779
    268000   1.038173       1.0225502      7.4387878     -2594.1312     -4152.948       1558.8167     -4152.948      -5423.4334     -294.75617      1565.2416      5644.7827
    269000   0.98078652     0.97909893     7.5072105     -2667.0357     -4139.6867      1472.651      -4139.6867     -5428.3007     -297.34302      1585.957       5647.6605
    270000   0.99451363     0.99473562     7.4153727     -2692.0175     -4185.2797      1493.2622     -4185.2797     -5464.1275     -293.83484      1572.6827      5520.9628
    271000   1.0214302      1.0017783      7.6712744     -2590.6522     -4124.3296      1533.6774     -4124.3296     -5451.2501     -298.24751      1625.1681      5905.7549
    272000   1.0254455      1.0191708      7.205643      -2692.0691     -4231.7756      1539.7065     -4231.7756     -5464.6103     -303.08806      1535.9228      5288.6226
    273000   0.98954657     0.98603654     7.3706553     -2709.2479     -4195.052       1485.8042     -4195.052      -5470.8742     -301.13107      1576.9532      5454.2051
    274000   0.99278909     0.98643406     7.4428726     -2648.461      -4139.1338      1490.6728     -4139.1338     -5422.3771     -301.88419      1585.1275      5594.9771
    275000   0.98949612     1.0000462      7.4017623     -2704.8775     -4190.606       1485.7284     -4190.606      -5475.1097     -297.07348      1581.5772      5493.0284
    276000   0.99438063     1.0065169      7.3565886     -2623.4232     -4116.4857      1493.0625     -4116.4857     -5369.4513     -301.09934      1554.0649      5524.45
    277000   1.0304202      1.0360227      7.2850787     -2670.1124     -4217.2883      1547.1759     -4217.2883     -5464.1523     -302.93426      1549.7983      5398.5593
    278000   0.97440301     0.97796197     7.2304737     -2702.8292     -4165.8953      1463.0661     -4165.8953     -5410.5071     -297.15473      1541.7665      5305.364
    279000   0.98330305     0.99597483     7.1586376     -2703.3747     -4179.8042      1476.4295     -4179.8042     -5413.3269     -299.15766      1532.6803      5225.2556
    280000   0.97591056     1.0045911      7.5703724     -2682.1052     -4147.4349      1465.3297     -4147.4349     -5453.2658     -297.86277      1603.6937      5702.5467
    281000   1.0074352      0.99308819     7.5106781     -2675.0942     -4187.7582      1512.664      -4187.7582     -5494.267      -298.2443       1604.753       5643.4425
    282000   0.98976805     0.98623747     7.1800224     -2724.5045     -4210.6412      1486.1367     -4210.6412     -5441.4165     -303.5052       1534.2805      5227.8109
    283000   1.0291864      1.0095463      7.4042034     -2635.4528     -4180.7762      1545.3234     -4180.7762     -5458.3839     -295.36189      1572.9696      5565.1568
    284000   0.96915761     0.99696821     7.4814161     -2717.0756     -4172.2657      1455.1902     -4172.2657     -5469.5986     -299.01679      1596.3497      5569.0518
    285000   1.0008046      1.0179498      7.2925817     -2695.3099     -4198.018       1502.7081     -4198.018      -5447.5778     -298.5969       1548.1566      5381.6717
    286000   0.98236545     0.97764292     7.5676693     -2626.4708     -4101.4925      1475.0217     -4101.4925     -5401.1945     -303.01655      1602.7185      5755.1873
    287000   1.0483752      1.0421331      7.3468415     -2619.9224     -4194.0578      1574.1354     -4194.0578     -5448.4918     -303.56549      1557.9995      5517.1553
    288000   1.0371903      1.0061145      7.5318565     -2622.4892     -4179.8304      1557.3412     -4179.8304     -5474.4535     -304.85987      1599.483       5719.5039
    289000   1.0184294      0.99720512     7.2369355     -2620.6759     -4149.8476      1529.1718     -4149.8476     -5394.7619     -296.0419       1540.9561      5394.6742
    290000   0.97445079     0.97507433     6.9275435     -2860.9499     -4324.0877      1463.1379     -4324.0877     -5526.9539     -297.99607      1500.8623      4811.7296
    291000   1.0068276      0.99873167     7.2815116     -2706.2392     -4217.9908      1511.7517     -4217.9908     -5478.0253     -296.09909      1556.1335      5358.4817
    292000   1.0028679      0.99074286     7.2201374     -2692.8014     -4198.6076      1505.8062     -4198.6076     -5453.069      -294.91023      1549.3716      5303.9437
    293000   0.99867033     1.0025993      7.3609631     -2609.681      -4109.1845      1499.5035     -4109.1845     -5356.2588     -301.08704      1548.1614      5543.0372
    294000   1.0085849      1.0190274      7.6712235     -2604.7695     -4119.1597      1514.3902     -4119.1597     -5451.7265     -301.95936      1634.5261      5891.5812
    295000   0.99703034     1.0049051      7.3643332     -2719.0362     -4216.0773      1497.0411     -4216.0773     -5503.4843     -304.15208      1591.559       5437.4147
    296000   1.0100598      1.0202786      7.5637765     -2659.7349     -4176.3397      1516.6048     -4176.3397     -5488.3945     -295.42863      1607.4834      5717.6116
    297000   1.0044786      1.0031314      7.1615383     -2663.1839     -4171.4085      1508.2246     -4171.4085     -5389.0767     -298.62123      1516.2895      5268.6592
    298000   1.0077005      0.9901995      7.5316216     -2628.3619     -4141.4241      1513.0622     -4141.4241     -5435.4642     -300.09808      1594.1382      5713.3711
    299000   0.99197929     1.0083727      7.3632356     -2670.0429     -4159.4998      1489.4569     -4159.4998     -5432.8207     -304.56809      1577.889       5485.1923
    300000   1.0460052      1.0398496      7.2085462     -2662.1494     -4232.7262      1570.5768     -4232.7262     -5476.1863     -302.27254      1545.7326      5321.7579
    301000   0.99311669     0.99431186     7.5558705     -2716.0596     -4207.2243      1491.1647     -4207.2243     -5511.6914     -300.07664      1604.5437      5652.5306
    302000   1.0247493      1.0074257      7.6170111     -2644.0388     -4182.6999      1538.661      -4182.6999     -5505.8542     -300.48035      1623.6347      5792.2684
    303000   0.96399369     0.97087812     7.5097146     -2756.6126     -4204.0492      1447.4365     -4204.0492     -5514.6957     -302.77093      1613.4175      5560.8571
    304000   0.99682781     1.0117199      7.2435061     -2699.7514     -4196.4884      1496.7369     -4196.4884     -5433.6728     -298.85615      1536.0406      5322.876
    305000   1.0050033      1.0095571      7.160934      -2795.1593     -4304.1718      1509.0125     -4304.1718     -5542.997      -298.16269      1536.9878      5136.0144
    306000   0.9991187      0.97423056     7.4993338     -2674.7471     -4174.9238      1500.1767     -4174.9238     -5485.8663     -301.53796      1612.4805      5631.2252
    307000   1.0372359      1.0114517      7.5227652     -2620.6727     -4178.0824      1557.4097     -4178.0824     -5467.6533     -300.0234       1589.5942      5711.2513
    308000   0.98837764     0.998779       7.3012704     -2639.1112     -4123.1602      1484.049      -4123.1602     -5377.2353     -302.42869      1556.5037      5447.4937
    309000   0.99017819     1.0043688      7.3877038     -2687.0596     -4173.8122      1486.7525     -4173.8122     -5462.8062     -295.17779      1584.1718      5495.2756
    310000   0.9878294      1.0252446      7.3444203     -2693.1068     -4176.3326      1483.2258     -4176.3326     -5448.5588     -299.49101      1571.7171      5441.2893
    311000   1.0124725      0.97716671     7.1151611     -2686.1389     -4206.3663      1520.2274     -4206.3663     -5408.8593     -300.84227      1503.3352      5194.3385
    312000   0.9642138      0.97478844     7.0695002     -2784.8762     -4232.6432      1447.767      -4232.6432     -5457.8275     -297.82085      1523.0052      5045.0291
    313000   0.99166829     1.0055048      7.4276474     -2753.9762     -4242.9662      1488.9899     -4242.9662     -5523.8805     -304.62994      1585.5443      5472.599
    314000   1.0368038      1.0114731      7.2463229     -2644.3586     -4201.1194      1556.7609     -4201.1194     -5444.9002     -293.45689      1537.2376      5381.3886
    315000   1.0015616      1.0050098      7.4640617     -2668.3994     -4172.2441      1503.8448     -4172.2441     -5454.0433     -300.93699      1582.7361      5598.5069
    316000   1.0274908      1.0304551      7.4762711     -2646.0657     -4188.8431      1542.7774     -4188.8431     -5467.4027     -302.58706      1581.1467      5634.3633
    317000   1.0315739      1.0134         7.5317186     -2619.7799     -4168.6881      1548.9082     -4168.6881     -5463.1184     -302.21662      1596.6469      5722.0606
    318000   0.99809829     1.0068768      7.5961226     -2595.6151     -4094.2596      1498.6446     -4094.2596     -5396.9471     -301.07514      1603.7626      5817.5568
    319000   1.031449       1.0095971      7.6825524     -2596.5161     -4145.2368      1548.7207     -4145.2368     -5480.6846     -300.3912       1635.839       5912.382
    320000   0.98551479     0.98523797     7.58885       -2603.8741     -4083.6246      1479.7505     -4083.6246     -5384.8949     -301.27035      1602.5407      5801.2429
    321000   1.0138649      1.0141868      7.4767032     -2662.568      -4184.8862      1522.3181     -4184.8862     -5476.7039     -300.36882      1592.1865      5618.3395
    322000   0.97852326     1.0065355      7.3043313     -2762.4413     -4231.6939      1469.2527     -4231.6939     -5503.6995     -298.10148      1570.1071      5327.5538
    323000   1.0059817      1.0256348      7.3581363     -2660.8855     -4171.367       1510.4815     -4171.367      -5448.7307     -300.84331      1578.2071      5488.7019
    324000   1.0116393      0.99194567     7.6529768     -2692.4174     -4211.3939      1518.9765     -4211.3939     -5531.1906     -302.4361       1622.2328      5783.7239
    325000   1.025677       1.0018791      7.2641386     -2686.2273     -4226.2813      1540.054      -4226.2813     -5466.976      -299.92935      1540.624       5359.252
    326000   0.97470485     0.98843203     7.275744      -2714.8984     -4178.4178      1463.5193     -4178.4178     -5428.2155     -301.56043      1551.3582      5343.4344
    327000   0.99831385     0.99904255     7.4766011     -2700.05       -4199.0182      1498.9682     -4199.0182     -5504.55       -297.4231       1602.9549      5580.7444
    328000   0.98773094     0.98931047     7.3916823     -2708.1431     -4191.2211      1483.078      -4191.2211     -5475.1405     -299.45189      1583.3713      5478.5986
    329000   1.0096012      1.0184829      7.1400253     -2709.8715     -4225.7877      1515.9162     -4225.7877     -5454.4669     -302.12743      1530.8067      5198.1446
    330000   1.0215052      1.0075166      7.4593215     -2678.6742     -4212.4643      1533.7901     -4212.4643     -5497.5957     -303.13326      1588.2647      5582.982
    331000   0.96016085     0.9866779      7.5888947     -2680.6645     -4122.346       1441.6815     -4122.346      -5443.4418     -295.04627      1616.142       5724.502
    332000   0.98500585     0.99606584     7.6475037     -2663.0641     -4142.0503      1478.9863     -4142.0503     -5470.5931     -299.41586      1627.9586      5807.0154
    333000   1.0435734      1.0167835      7.3153126     -2648.903      -4215.8285      1566.9255     -4215.8285     -5466.6138     -300.98698      1551.7722      5453.2546
    334000   1.0013959      1.003555       7.6255795     -2641.4851     -4145.081       1503.596      -4145.081      -5466.2227     -298.73402      1619.8757      5804.3121
    335000   0.98091926     0.96719038     7.186671      -2707.8859     -4180.7361      1472.8503     -4180.7361     -5416.2754     -297.39045      1532.9297      5251.7932
    336000   1.031148       1.0089437      7.4044212     -2699.0894     -4247.3581      1548.2687     -4247.3581     -5523.0824     -302.97949      1578.7038      5501.7614
    337000   1.0331859      1.0029953      7.7485687     -2620.0578     -4171.3865      1551.3287     -4171.3865     -5525.2984     -301.10707      1655.019       5961.9574
    338000   0.96301759     0.98792899     7.3213983     -2710.3441     -4156.315       1445.9709     -4156.315      -5403.998      -300.00399      1547.687       5398.5537
    339000   1.0184981      1.0223486      7.5110949     -2599.1841     -4128.459       1529.2749     -4128.459      -5425.8685     -295.99693      1593.4065      5719.8143
    340000   0.96330979     0.97326725     7.1029341     -2749.4669     -4195.8766      1446.4097     -4195.8766     -5424.42       -297.76333      1526.3068      5117.4684
    341000   1.0483948      1.0169666      7.5938645     -2609.6241     -4183.7888      1574.1647     -4183.7888     -5504.443      -296.72382      1617.378       5801.0468
    342000   1.0077006      1.0134054      7.5045242     -2658.6765     -4171.739       1513.0625     -4171.739      -5469.3774     -303.9238       1601.5623      5653.0446
    343000   0.99684224     0.98586216     7.1572049     -2719.5965     -4216.3551      1496.7586     -4216.3551     -5434.0845     -299.24338      1516.9728      5207.4471
    344000   0.99042154     0.99485203     7.3230818     -2684.0647     -4171.1826      1487.1179     -4171.1826     -5428.4635     -298.5156       1555.7964      5426.6977
    345000   0.99098025     1.0068878      7.421205      -2664.2719     -4152.2287      1487.9568     -4152.2287     -5425.6429     -305.97041      1579.3846      5555.168
    346000   1.067832       1.0532253      7.5672038     -2590.9438     -4194.2936      1603.3497     -4194.2936     -5485.9213     -303.43807      1595.0658      5790.1986
    347000   1.0122459      0.98605753     7.1001043     -2732.313      -4252.2002      1519.8873     -4252.2002     -5462.2295     -301.76633      1511.7956      5131.4882
    348000   0.97399645     1.0302173      7.2702403     -2775.185      -4237.6407      1462.4557     -4237.6407     -5495.1915     -300.80347      1558.3543      5277.0522
    349000   1.0142614      1.0122441      7.6531669     -2576.0012     -4098.9147      1522.9135     -4098.9147     -5421.582      -296.95906      1619.6264      5900.3507
    350000   1.0370803      1.0261496      7.2223741     -2674.5523     -4231.7284      1557.1761     -4231.7284     -5473.1807     -301.24837      1542.7007      5324.6701
    351000   0.98899325     1.0116812      7.1417996     -2807.2415     -4292.2149      1484.9734     -4292.2149     -5535.5488     -298.76463      1542.0986      5102.7397
    352000   0.98349178     0.99013871     7.5725558     -2694.5432     -4171.2561      1476.7129     -4171.2561     -5485.6514     -296.77267      1611.1679      5692.5269
    353000   0.99166036     1.0102077      7.2364818     -2775.5343     -4264.5124      1488.978      -4264.5124     -5520.7644     -300.83202      1557.084       5239.3133
    354000   0.97641633     0.98091041     7.431755      -2709.2924     -4175.3815      1466.0891     -4175.3815     -5463.645      -295.77513      1584.0386      5521.8322
    355000   0.96272432     0.98611024     7.327996      -2797.0408     -4242.5713      1445.5306     -4242.5713     -5535.7171     -300.67437      1593.8201      5319.1644
    356000   1.0213114      1.0036939      7.5217839     -2592.5969     -4126.0959      1533.499      -4126.0959     -5419.2393     -296.80323      1589.9466      5738.2402
    357000   0.98194204     0.99211566     7.49592       -2752.7352     -4227.1212      1474.386      -4227.1212     -5536.2382     -302.4824       1611.5995      5549.4561
    358000   1.0074361      0.98256233     7.3401117     -2686.7765     -4199.4418      1512.6653     -4199.4418     -5460.3654     -301.93915      1562.8627      5442.8475
    359000   1.0374104      1.0177273      7.0415291     -2640.0862     -4197.7579      1557.6717     -4197.7579     -5391.601      -301.55382      1495.397       5158.8393
    360000   1.018412       1.0052839      7.3811782     -2679.0385     -4208.1841      1529.1456     -4208.1841     -5468.0786     -301.56191      1561.4564      5496.0692
    361000   1.0478826      1.0333504      7.5308303     -2599.4568     -4172.8525      1573.3958     -4172.8525     -5480.9044     -296.96086      1605.0128      5741.3999
    362000   1.0205547      0.98876836     7.9141652     -2561.2412     -4093.6041      1532.3629     -4093.6041     -5466.3605     -297.57723      1670.3337      6204.1823
    363000   1.041043       1.0285984      7.050773      -2644.8864     -4208.0125      1563.1261     -4208.0125     -5397.5452     -301.38576      1490.9184      5164.2773
    364000   1.0111742      1.0263209      7.4855332     -2679.8131     -4198.0912      1518.2781     -4198.0912     -5484.2759     -303.57308      1589.7578      5610.8741
    365000   1.0114851      1.0259391      7.5278889     -2678.9189     -4197.6637      1518.7448     -4197.6637     -5493.968      -298.66125      1594.9656      5658.6799
[...]
    393000   1.022803       1.0029258      7.7439294     -2661.4629     -4197.2017      1535.7388     -4197.2017     -5543.2353     -301.43698      1647.4706      5915.414
    394000   0.99136901     0.99626537     7.1729404     -2679.2347     -4167.7753      1488.5406     -4167.7753     -5394.7457     -300.63663      1527.6071      5265.2369
    395000   0.97304912     0.98923077     7.5743761     -2707.2691     -4168.3023      1461.0333     -4168.3023     -5480.6783     -297.65496      1610.031       5681.8172
    396000   1.0121822      1.0022329      7.9777346     -2590.4926     -4110.2842      1519.7916     -4110.2842     -5478.8122     -302.92893      1671.4569      6245.3379
    397000   0.98547011     1.0079825      7.1360814     -2795.9737     -4275.6571      1479.6834     -4275.6571     -5524.877      -296.06384      1545.2838      5107.6742
    398000   0.98543018     0.99117386     7.3249201     -2668.4553     -4148.0788      1479.6234     -4148.0788     -5401.2463     -301.81952      1554.9871      5444.343
    399000   0.98036795     1.0083866      7.2679412     -2740.419      -4212.4415      1472.0225     -4212.4415     -5464.6901     -297.27312      1549.5217      5309.2717
    400000   1.0010979      0.97497002     7.6119029     -2654.3341     -4157.4826      1503.1485     -4157.4826     -5483.6234     -301.29211      1627.4329      5776.3154
    401000   1.0112595      1.0175101      7.4617939     -2652.4819     -4170.8881      1518.4062     -4170.8881     -5447.6625     -302.90134      1579.6757      5611.9127
    402000   0.99895327     0.96781412     7.5872565     -2595.1331     -4095.0615      1499.9283     -4095.0615     -5404.7294     -298.10528      1607.7732      5808.219
    403000   1.0222426      1.0278713      7.3591589     -2635.2016     -4170.0989      1534.8973     -4170.0989     -5434.946      -295.10144      1559.9485      5515.5184
    404000   1.0060622      1.0162203      7.5491076     -2678.148      -4188.7504      1510.6024     -4188.7504     -5499.798      -294.11897      1605.1665      5682.9518
    405000   1.0074877      1.0229458      7.1951439     -2702.1847     -4214.9274      1512.7427     -4214.9274     -5455.5344     -301.45407      1542.061       5266.8786
    406000   0.98871736     0.99226164     7.3453165     -2774.7468     -4259.3059      1484.5591     -4259.3059     -5531.9782     -301.86375      1574.5361      5360.642
    407000   1.0187795      1.0263649      7.3479631     -2661.4765     -4191.1738      1529.6973     -4191.1738     -5459.1963     -304.52161      1572.5441      5476.8435
    408000   1.030001       1.0199869      7.6045749     -2595.3573     -4141.9037      1546.5465     -4141.9037     -5437.0483     -302.86937      1598.014       5827.1759
    409000   1.0024118      1.0125538      7.1835573     -2646.7713     -4151.8926      1505.1213     -4151.8926     -5383.028      -302.57292      1533.7083      5309.4591
    410000   0.95995456     1.0008181      7.5338289     -2713.4275     -4154.7992      1441.3718     -4154.7992     -5473.1259     -296.97908      1615.3057      5630.7503
    411000   0.97608455     0.98279225     7.3195471     -2788.5601     -4254.151       1465.5909     -4254.151      -5534.0932     -301.0159       1580.9581      5318.2874
    412000   0.96996527     0.96618071     7.3637495     -2726.8135     -4183.2164      1456.4029     -4183.2164     -5457.0944     -305.61141      1579.4895      5428.9908
    413000   1.0165312      1.0032947      7.3724679     -2665.2995     -4191.621       1526.3215     -4191.621      -5478.8577     -300.82872      1588.0654      5500.161
    414000   0.97567432     0.98909725     7.3758816     -2756.2118     -4221.1868      1464.975      -4221.1868     -5509.7056     -298.39295      1586.9118      5413.0296
    415000   1.0026038      1.0154312      7.616752      -2644.1678     -4149.5774      1505.4096     -4149.5774     -5453.4646     -305.39827      1609.2854      5791.8523
    416000   1.0183056      1.0136995      7.3590988     -2588.8734     -4117.8592      1528.9858     -4117.8592     -5359.9163     -298.09235      1540.1494      5561.78
    417000   0.97576857     0.99258075     7.7274544     -2686.4771     -4151.5936      1465.1165     -4151.5936     -5517.5128     -298.65739      1664.5766      5872.1528
    418000   0.995601       0.98305481     7.2327034     -2770.841      -4265.736       1494.8949     -4265.736      -5517.4769     -301.83796      1553.5789      5239.8217
    419000   1.0503137      1.0223335      7.1514199     -2633.3572     -4210.4032      1577.046      -4210.4032     -5437.4124     -298.31614      1525.3253      5287.2791
    420000   0.99204768     0.99523552     7.6739232     -2732.2262     -4221.7857      1489.5596     -4221.7857     -5550.4173     -302.28189      1630.9135      5767.1147
    421000   1.0258204      0.99083623     7.2042792     -2777.0579     -4317.3272      1540.2693     -4317.3272     -5570.3261     -305.48879      1558.4877      5202.1233
    422000   1.0113584      0.99600187     7.58124       -2618.1398     -4136.6944      1518.5547     -4136.6944     -5444.9588     -300.48106      1608.7454      5778.5486
    423000   0.99213851     1.0160811      7.4980052     -2711.9293     -4201.6253      1489.696      -4201.6253     -5496.7384     -303.46925      1598.5824      5592.5714
    424000   1.0306865      1.0148609      7.258153      -2619.0803     -4166.6561      1547.5758     -4166.6561     -5403.5931     -301.45435      1538.3913      5419.7695
    425000   1.0321899      1.0269337      6.9970878     -2712.9022     -4262.7353      1549.8331     -4262.7353     -5455.794      -301.8602       1494.9189      5036.8018
    426000   1.0336061      1.005202       7.6089222     -2522.2066     -4074.1661      1551.9595     -4074.1661     -5372.7052     -297.0801       1595.6192      5905.1415
    427000   1.0004066      1.0270718      7.5192642     -2620.427      -4122.5375      1502.1105     -4122.5375     -5414.3756     -300.42144      1592.2596      5707.6194
    428000   0.99970232     1.0183231      7.0362416     -2683.8259     -4184.8789      1501.053      -4184.8789     -5382.2706     -297.91252      1495.3042      5109.2434
    429000   0.95868023     0.95998095     7.1900603     -2803.9584     -4243.4168      1439.4584     -4243.4168     -5482.3742     -301.73859      1540.696       5159.4745
    430000   1.0097878      0.99643495     7.7552868     -2643.2118     -4159.4081      1516.1963     -4159.4081     -5509.4291     -297.60943      1647.6305      5946.2442
    431000   0.99707621     1.0117108      7.480878      -2680.8687     -4177.9786      1497.1099     -4177.9786     -5470.038      -300.78432      1592.8437      5604.6627
    432000   1.0432807      1.0027424      7.3708318     -2589.1199     -4155.606       1566.486      -4155.606      -5418.3368     -304.37802      1567.1088      5574.5285
    433000   0.9831266      0.96787292     7.6178123     -2702.6404     -4178.805       1476.1646     -4178.805      -5509.3254     -295.51912      1626.0395      5734.5541
    434000   1.0642538      1.0370728      7.5184235     -2578.3576     -4176.3347      1597.9771     -4176.3347     -5455.8236     -303.15014      1582.6391      5748.7578
    435000   0.99143932     0.98824182     7.3593652     -2655.9507     -4144.5968      1488.6461     -4144.5968     -5418.3473     -291.1134       1564.8639      5494.9978
    436000   1.0049949      0.99478268     7.2355793     -2676.7699     -4185.7698      1508.9999     -4185.7698     -5424.0998     -301.28785      1539.6178      5337.0781
    437000   0.98855165     1.0026033      7.4535585     -2706.1441     -4190.4544      1484.3103     -4190.4544     -5481.3325     -301.49475      1592.3728      5549.1292
    438000   0.98053014     0.98200597     7.4293993     -2728.8311     -4201.0971      1472.266      -4201.0971     -5492.7847     -296.85353      1588.5411      5499.6844
    439000   0.96555285     0.98322606     7.5100962     -2751.8299     -4201.6075      1449.7776     -4201.6075     -5514.5823     -298.72759      1611.7024      5566.0624
    440000   0.9992777      1.0127498      7.1398973     -2749.2996     -4249.7151      1500.4155     -4249.7151     -5484.4525     -302.45179      1537.1892      5158.5747
    441000   0.99166795     0.95682309     7.0338997     -2766.7698     -4255.7592      1488.9894     -4255.7592     -5470.1481     -301.16482      1515.5537      5023.7057
    442000   1.0134275      1.0276969      7.3549848     -2642.0264     -4163.6878      1521.6614     -4163.6878     -5420.8431     -299.48999      1556.6453      5504.0705
    443000   0.9503616      0.98600197     7.4069464     -2710.1302     -4137.0981      1426.9679     -4137.0981     -5424.2138     -296.82399      1583.9397      5493.5174
    444000   1.0160036      1.0032961      7.4587506     -2667.0745     -4192.6039      1525.5294     -4192.6039     -5460.9976     -303.81159      1572.2052      5593.9494
    445000   1.0206827      1.0058516      7.0497515     -2668.7108     -4201.2659      1532.5551     -4201.2659     -5402.6274     -304.44307      1505.8045      5139.3215
    446000   1.0518308      1.0306626      7.4868551     -2634.4724     -4213.7962      1579.3239     -4213.7962     -5498.8173     -300.58806      1585.6091      5657.6791
    447000   0.97996036     1.0035372      7.5922115     -2739.0629     -4210.4733      1471.4105     -4210.4733     -5527.6874     -297.71341      1614.9274      5669.7772
    448000   1.0126056      1.0137668      7.431826      -2663.7579     -4184.1851      1520.4273     -4184.1851     -5457.488      -297.13888      1570.4418      5567.4454
    449000   1.0092066      1.0130573      7.4911548     -2708.5547     -4223.8785      1515.3238     -4223.8785     -5530.0185     -303.11325      1609.2533      5588.3588
    450000   0.99728493     0.99866049     7.2308407     -2731.7832     -4229.2065      1497.4233     -4229.2065     -5467.5401     -302.27007      1540.6037      5276.8165
    451000   1.0242558      1.0279676      7.5144664     -2669.6372     -4207.5572      1537.92       -4207.5572     -5502.0718     -299.69753      1594.2121      5653.0954
    452000   1.0208248      0.99587722     7.5501442     -2624.1022     -4156.8707      1532.7685     -4156.8707     -5459.263      -300.15331      1602.5456      5738.1457
    453000   1.0188081      1.0214834      7.5401653     -2670.3552     -4200.0955      1529.7404     -4200.0955     -5501.8327     -295.17438      1596.9116      5680.8405
    454000   1.0389279      1.0514578      7.3829238     -2689.8745     -4249.8247      1559.9502     -4249.8247     -5519.3332     -298.52341      1568.0319      5487.1665
    455000   0.98442686     1.0181283      7.3571737     -2724.8285     -4202.9454      1478.1169     -4202.9454     -5471.8017     -299.59027      1568.4466      5423.6928
    456000   0.99903528     0.99611168     7.395243      -2719.5961     -4219.6475      1500.0515     -4219.6475     -5500.596      -300.15779      1581.1063      5471.0893
    457000   0.97935484     0.99054082     7.7611431     -2701.7736     -4172.2749      1470.5013     -4172.2749     -5522.3028     -300.75573      1650.7836      5894.1686
    458000   1.028532       1.0370108      7.6143034     -2615.7488     -4160.0896      1544.3408     -4160.0896     -5460.3505     -297.66198      1597.9229      5817.5594
    459000   1.0135174      1.0227215      7.3221007     -2706.0325     -4227.8288      1521.7963     -4227.8288     -5475.7532     -303.06367      1550.988       5403.6433
    460000   1.0103284      1.0164892      7.3689206     -2654.8729     -4171.881       1517.0081     -4171.881      -5446.8268     -298.0229       1572.9687      5506.6587
    461000   1.006939       0.97291065     7.3891059     -2686.0273     -4197.9463      1511.919      -4197.9463     -5466.5532     -299.44325      1568.0502      5497.8608
    462000   0.99232968     1.0073554      7.4072346     -2706.8811     -4196.8641      1489.983      -4196.8641     -5470.9319     -302.8397       1576.9074      5497.0857
    463000   1.0227906      1.0073039      7.6804184     -2641.0963     -4176.8164      1535.7201     -4176.8164     -5498.8903     -296.17838      1618.2523      5865.4384
    464000   1.0077444      0.98425235     7.4310779     -2690.603      -4203.7313      1513.1283     -4203.7313     -5490.5801     -297.83409      1584.6829      5539.7717
    465000   1.0093916      0.97613425     7.2435244     -2692.9939     -4208.5954      1515.6015     -4208.5954     -5453.8587     -301.10633      1546.3696      5329.6538
    466000   0.9719445      1.0268507      7.4598887     -2701.4491     -4160.8238      1459.3747     -4160.8238     -5435.3352     -303.23302      1577.7445      5560.8353
    467000   1.0326828      1.0354233      7.4803307     -2626.5627     -4177.1359      1550.5733     -4177.1359     -5471.6512     -301.86747      1596.3828      5658.3625
    468000   1.0196859      1.0242367      7.535154      -2662.0845     -4193.1429      1531.0584     -4193.1429     -5487.0885     -305.52759      1599.4732      5683.5609
    469000   1.003655       0.99533205     7.7725049     -2630.9906     -4137.9786      1506.9879     -4137.9786     -5486.9562     -299.3847       1648.3623      5977.5354
    470000   1.0269372      1.0015185      7.2929169     -2651.2687     -4193.2149      1541.9462     -4193.2149     -5439.946      -299.06795      1545.7991      5426.0842
    471000   0.98214933     0.99255081     7.2469106     -2745.9945     -4220.6917      1474.6972     -4220.6917     -5461.5719     -299.4824       1540.3626      5280.4036
    472000   1.025318       1.0023267      7.1822755     -2681.6914     -4221.2063      1539.515      -4221.2063     -5464.4112     -297.93589      1541.1408      5273.1194
    473000   0.9968614      0.99805033     6.9907763     -2744.8072     -4241.5946      1496.7874     -4241.5946     -5445.1518     -303.41001      1506.9671      4997.9064
    474000   0.98558893     0.9817028      7.3210682     -2652.8127     -4132.6745      1479.8618     -4132.6745     -5378.1461     -298.62932      1544.1009      5455.7195
    475000   1.0320446      1.0271016      7.5868657     -2657.432      -4207.047       1549.615      -4207.047      -5518.9757     -297.9944       1609.9231      5745.4873
    476000   1.0092254      1.0050019      7.3398783     -2727.7885     -4243.1403      1515.3519     -4243.1403     -5516.9198     -297.68714      1571.4666      5401.5771
    477000   1.0045447      1.0050202      7.5658174     -2649.7419     -4158.0658      1508.3239     -4158.0658     -5459.8441     -300.5701       1602.3484      5729.865
    478000   0.98962297     0.98761648     7.3057624     -2707.8297     -4193.7485      1485.9189     -4193.7485     -5473.2003     -293.41602      1572.8678      5383.7505
    479000   0.99938958     1.0309538      7.1981302     -2767.7518     -4268.3352      1500.5835     -4268.3352     -5519.2601     -299.18006      1550.105       5204.619
    480000   1.0109364      1.0068012      7.1875115     -2691.5632     -4209.4841      1517.9209     -4209.4841     -5437.3804     -300.13676      1528.033       5269.0468
    481000   1.0169899      0.9885228      7.6365696     -2592.1313     -4119.1417      1527.0104     -4119.1417     -5411.9733     -301.49494      1594.3266      5865.838
    482000   1.003902       0.98875801     7.1287354     -2680.3556     -4187.7144      1507.3588     -4187.7144     -5411.6843     -301.59085      1525.5607      5215.1563
    483000   1.0279696      1.0117397      7.3784462     -2678.0999     -4221.5962      1543.4963     -4221.5962     -5492.3001     -296.13538      1566.8393      5493.982
    484000   0.98181099     0.98948768     7.313875      -2684.4001     -4158.5893      1474.1892     -4158.5893     -5412.9596     -301.09436      1555.4646      5416.1652
    485000   0.99259988     1.0067595      7.4036489     -2680.6934     -4171.0821      1490.3887     -4171.0821     -5454.2775     -300.67605      1583.8714      5519.302
    486000   1.0132112      0.99069806     7.0852397     -2707.6873     -4229.0239      1521.3366     -4229.0239     -5448.9037     -298.29282      1518.1726      5139.6504
    487000   1.0208396      1.0267316      7.5602259     -2667.3474     -4200.138       1532.7906     -4200.138      -5507.2783     -302.68381      1609.8241      5706.0667
    488000   0.99110232     1.0222689      7.5339616     -2606.5672     -4094.7074      1488.1401     -4094.7074     -5386.897      -299.10394      1591.2935      5737.7575
    489000   1.0291915      1.0038028      7.38096       -2593.9984     -4139.3294      1545.331      -4139.3294     -5384.6419     -304.54463      1549.8571      5580.8677
    490000   1.026203       0.99911269     7.3876262     -2604.8019     -4145.6457      1540.8438     -4145.6457     -5402.2933     -298.30217      1554.9497      5577.4474
    491000   0.94630704     0.9627904      7.5851144     -2684.4344     -4105.3144      1420.88       -4105.3144     -5421.6713     -304.00591      1620.3628      5716.5452
    492000   1.0363888      1.012296       7.7082218     -2570.4423     -4126.5801      1556.1378     -4126.5801     -5452.1878     -301.92765      1627.5354      5966.8863
    493000   1.0241388      0.99743428     7.5496279     -2623.8642     -4161.6087      1537.7445     -4161.6087     -5459.5726     -300.6413       1598.6052      5737.8119
    494000   0.98515974     0.99058778     7.1883371     -2788.226      -4267.4434      1479.2173     -4267.4434     -5506.3864     -301.91861      1540.8616      5173.2983
    495000   1.0216486      1.0099609      7.6485084     -2545.2833     -4079.2886      1534.0053     -4079.2886     -5374.0485     -299.4659       1594.2257      5925.9091
    496000   1.0342345      1.025203       7.2769237     -2651.7559     -4204.659       1552.9031     -4204.659      -5463.0398     -297.73727      1556.118       5407.8836
    497000   0.9828699      0.9934847      7.3403034     -2728.8088     -4204.588       1475.7791     -4204.588      -5465.7962     -301.38706      1562.5953      5401.0275
    498000   1.0947624      1.0560681      7.205064      -2593.9349     -4237.7207      1643.7858     -4237.7207     -5472.0441     -301.88239      1536.2058      5386.1156
    499000   0.95978827     1.0068646      7.408213      -2734.2283     -4175.3504      1441.1221     -4175.3504     -5462.2705     -296.33762      1583.2577      5470.8221
    500000   1.00664        0.99454591     7.4754349     -2633.8626     -4145.3326      1511.4699     -4145.3326     -5436.0224     -301.85432      1592.5442      5645.6402
colvars: Saving collective variables state to "prod.colvars.state".
Loop time of 5707.16 on 1 procs for 500000 steps with 1002 atoms

Performance: 37847.181 tau/day, 87.609 timesteps/s
100.0% CPU use with 1 MPI tasks x 1 OpenMP threads

MPI task timing breakdown:
Section |  min time  |  avg time  |  max time  |%varavg| %total
---------------------------------------------------------------
Pair    | 25.66      | 25.66      | 25.66      |   0.0 |  0.45
Kspace  | 5581.4     | 5581.4     | 5581.4     |   0.0 | 97.80
Neigh   | 0.064147   | 0.064147   | 0.064147   |   0.0 |  0.00
Comm    | 54.138     | 54.138     | 54.138     |   0.0 |  0.95
Output  | 0.066234   | 0.066234   | 0.066234   |   0.0 |  0.00
Modify  | 40.923     | 40.923     | 40.923     |   0.0 |  0.72
Other   |            | 4.888      |            |       |  0.09

Nlocal:           1002 ave        1002 max        1002 min
Histogram: 1 0 0 0 0 0 0 0 0 0
Nghost:           7755 ave        7755 max        7755 min
Histogram: 1 0 0 0 0 0 0 0 0 0
Neighs:              0 ave           0 max           0 min
Histogram: 1 0 0 0 0 0 0 0 0 0

Total # of neighbors = 0
Ave neighs/atom = 0
Neighbor list builds = 47047
Dangerous builds = 0

undump         1
unfix          1
unfix          2
unfix          3
Total wall time: 3:29:47
